8
Coordinates from ORCA-job dihedral Relaxed Surface Scan Step 1
  C      -0.794387      0.110008     -0.278219
  C      -1.268090      1.549253      0.000206
  H       0.158892     -0.096873      0.196231
  H      -1.502878     -0.623376      0.091738
  H      -0.670149     -0.072119     -1.340336
  H      -2.222838      1.564069      0.514902
  H      -0.561483      2.090330      0.620407
  H      -1.389068      2.115708     -0.916929
>
8
Coordinates from ORCA-job dihedral Relaxed Surface Scan Step 2
  C      -0.795788      0.110421     -0.281347
  C      -1.266086      1.549100      0.003014
  H       0.110972     -0.125571      0.265996
  H      -1.539835     -0.619902      0.018106
  H      -0.585222     -0.044651     -1.333731
  H      -2.180834      1.562781      0.585851
  H      -0.519461      2.117702      0.546282
  H      -1.473745      2.087121     -0.916171
>
8
Coordinates from ORCA-job dihedral Relaxed Surface Scan Step 3
  C      -0.796522      0.111873     -0.283596
  C      -1.263870      1.548288      0.004475
  H       0.059646     -0.152652      0.329165
  H      -1.571520     -0.612373     -0.056041
  H      -0.504287     -0.018885     -1.319560
  H      -2.134172      1.561723      0.652031
  H      -0.485355      2.141637      0.470923
  H      -1.553920      2.057390     -0.909396
>
8
Coordinates from ORCA-job dihedral Relaxed Surface Scan Step 4
  C      -0.796598      0.113686     -0.284650
  C      -1.262068      1.547221      0.004610
  H       0.006855     -0.177735      0.385300
  H      -1.597495     -0.601877     -0.130037
  H      -0.428995      0.004209     -1.298936
  H      -2.083812      1.561762      0.713057
  H      -0.459529      2.162229      0.396516
  H      -1.628359      2.027507     -0.897860
>
8
Coordinates from ORCA-job dihedral Relaxed Surface Scan Step 5
  C      -0.796354      0.115289     -0.284119
  C      -1.261422      1.546002      0.003606
  H      -0.045879     -0.201112      0.434455
  H      -1.617219     -0.590032     -0.203340
  H      -0.360097      0.024646     -1.273020
  H      -2.030905      1.564253      0.768710
  H      -0.441403      2.179388      0.324312
  H      -1.696722      1.998567     -0.882605
>
8
Coordinates from ORCA-job dihedral Relaxed Surface Scan Step 6
  C      -0.796105      0.116321     -0.282301
  C      -1.262041      1.544809      0.001985
  H      -0.098377     -0.223478      0.477527
  H      -1.630614     -0.577788     -0.276127
  H      -0.296984      0.042415     -1.242831
  H      -1.975852      1.570006      0.819340
  H      -0.430026      2.193801      0.254504
  H      -1.760000      1.970914     -0.864097
>
8
Coordinates from ORCA-job dihedral Relaxed Surface Scan Step 7
  C      -0.796121      0.116585     -0.279578
  C      -1.263863      1.543753      0.000240
  H      -0.151053     -0.245732      0.515302
  H      -1.637635     -0.565778     -0.348582
  H      -0.238580      0.057830     -1.208921
  H      -1.918877      1.579577      0.865225
  H      -0.424428      2.206036      0.186552
  H      -1.819444      1.944730     -0.842238
>
8
Coordinates from ORCA-job dihedral Relaxed Surface Scan Step 8
  C      -0.796506      0.116047     -0.276445
  C      -1.266585      1.542948     -0.001241
  H      -0.204775     -0.268752      0.548387
  H      -1.638369     -0.554074     -0.420862
  H      -0.183583      0.071092     -1.171420
  H      -1.859938      1.593019      0.906546
  H      -0.423924      2.216751      0.119531
  H      -1.876320      1.919968     -0.816497
>
8
Coordinates from ORCA-job dihedral Relaxed Surface Scan Step 9
  C      -0.797169      0.114821     -0.273440
  C      -1.269721      1.542533     -0.002225
  H      -0.260725     -0.293249      0.577138
  H      -1.633019     -0.542225     -0.493055
  H      -0.130628      0.082170     -1.130074
  H      -1.798781      1.609903      0.943366
  H      -0.428225      2.226693      0.052306
  H      -1.931731      1.896354     -0.786016
>
8
Coordinates from ORCA-job dihedral Relaxed Surface Scan Step 10
  C      -0.797845      0.113138     -0.271083
  C      -1.272661      1.542653     -0.002659
  H      -0.320287     -0.319653      0.601625
  H      -1.621849     -0.529403     -0.565183
  H      -0.078424      0.090812     -1.084274
  H      -1.734999      1.629462      0.975628
  H      -0.437454      2.236618     -0.016352
  H      -1.986481      1.873373     -0.749702
>
8
Coordinates from ORCA-job dihedral Relaxed Surface Scan Step 11
  C      -0.798169      0.111326     -0.269807
  C      -1.274767      1.543416     -0.002643
  H      -0.384881     -0.347970      0.621575
  H      -1.605097     -0.514639     -0.637199
  H      -0.025967      0.096690     -1.033121
  H      -1.668140      1.650820      1.003173
  H      -0.452092      2.247079     -0.087620
  H      -2.040888      1.850279     -0.706358
>
8
Coordinates from ORCA-job dihedral Relaxed Surface Scan Step 12
  C      -0.797789      0.109786     -0.269882
  C      -1.275481      1.544811     -0.002390
  H      -0.455627     -0.377633      0.636343
  H      -1.582909     -0.497089     -0.708928
  H       0.027097      0.099607     -0.975620
  H      -1.597889      1.673206      1.025735
  H      -0.472846      2.258120     -0.162307
  H      -2.094556      1.826191     -0.654952
>
8
Coordinates from ORCA-job dihedral Relaxed Surface Scan Step 13
  C      -0.796515      0.108932     -0.271309
  C      -1.274490      1.546643     -0.002167
  H      -0.532819     -0.407421      0.645016
  H      -1.555357     -0.476264     -0.779955
  H       0.080078      0.099678     -0.911078
  H      -1.524285      1.696083      1.042958
  H      -0.500401      2.269034     -0.240373
  H      -2.146212      1.800315     -0.595092
>
8
Coordinates from ORCA-job dihedral Relaxed Surface Scan Step 14
  C      -0.794423      0.109086     -0.273751
  C      -1.271877      1.548522     -0.002228
  H      -0.615393     -0.435644      0.646755
  H      -1.522549     -0.452173     -0.849519
  H       0.131079      0.097363     -0.839669
  H      -1.447922      1.719157      1.054455
  H      -0.535044      2.278417     -0.320481
  H      -2.193872      1.772272     -0.527562
>
8
Coordinates from ORCA-job dihedral Relaxed Surface Scan Step 15
  C      -0.791874      0.110316     -0.276544
  C      -1.268212      1.549977     -0.002740
  H      -0.700802     -0.460692      0.641295
  H      -1.484755     -0.425337     -0.916522
  H       0.177400      0.093351     -0.762861
  H      -1.370000      1.742313      1.059910
  H      -0.576282      2.284624     -0.399994
  H      -2.235476      1.742448     -0.454545
>
8
Coordinates from ORCA-job dihedral Relaxed Surface Scan Step 16
  C      -0.789423      0.112333     -0.278875
  C      -1.264454      1.550643     -0.003712
  H      -0.785582     -0.481790      0.629216
  H      -1.442456     -0.396665     -0.979728
  H       0.216494      0.088388     -0.683245
  H      -1.292120      1.765561      1.059195
  H      -0.622721      2.286414     -0.475703
  H      -2.269739      1.712116     -0.379149
>
8
Coordinates from ORCA-job dihedral Relaxed Surface Scan Step 17
  C      -0.787661      0.114573     -0.280087
  C      -1.261623      1.550386     -0.004942
  H      -0.866466     -0.499376      0.611720
  H      -1.396245     -0.367217     -1.038107
  H       0.246892      0.083144     -0.603687
  H      -1.215865      1.789022      1.052436
  H      -0.672421      2.283319     -0.544993
  H      -2.296610      1.683149     -0.304339
>
8
Coordinates from ORCA-job dihedral Relaxed Surface Scan Step 18
  C      -0.787048      0.116434     -0.279929
  C      -1.260422      1.549309     -0.006065
  H      -0.941359     -0.514746      0.590066
  H      -1.346665     -0.337916     -1.091085
  H       0.268483      0.078035     -0.526381
  H      -1.142391      1.812883      1.039963
  H      -0.723592      2.275649     -0.606567
  H      -2.317007      1.657352     -0.232003
>
8
Coordinates from ORCA-job dihedral Relaxed Surface Scan Step 19
  C      -0.787777      0.117495     -0.278560
  C      -1.261052      1.547661     -0.006711
  H      -1.009621     -0.529341      0.565113
  H      -1.294097     -0.309353     -1.138509
  H       0.282140      0.073076     -0.452393
  H      -1.072292      1.837315      1.022144
  H      -0.775136      2.264240     -0.660403
  H      -2.332165      1.635907     -0.162680
>
8
Coordinates from ORCA-job dihedral Relaxed Surface Scan Step 20
  C      -0.789743      0.117599     -0.276402
  C      -1.263263      1.545753     -0.006648
  H      -1.071791     -0.544202      0.537115
  H      -1.238728     -0.281775     -1.180492
  H       0.289150      0.067869     -0.381689
  H      -1.005701      1.862428      0.999258
  H      -0.826848      2.250134     -0.707331
  H      -2.343077      1.619195     -0.095810
>
8
Coordinates from ORCA-job dihedral Relaxed Surface Scan Step 21
  C      -0.792581      0.116812     -0.273985
  C      -1.266500      1.543915     -0.005833
  H      -1.129096     -0.559689      0.505812
  H      -1.180568     -0.255204     -1.217254
  H       0.290755      0.061609     -0.313474
  H      -0.942473      1.888298      0.971454
  H      -0.879329      2.234415     -0.748486
  H      -2.350209      1.606844     -0.030235
>
8
Coordinates from ORCA-job dihedral Relaxed Surface Scan Step 22
  C      -0.795740      0.115341     -0.271799
  C      -1.270087      1.542472     -0.004431
  H      -1.183007     -0.575492      0.470616
  H      -1.119492     -0.229561     -1.248993
  H       0.287905      0.053202     -0.246582
  H      -0.882375      1.915006      0.938743
  H      -0.933722      2.218091     -0.784931
  H      -2.353482      1.597942      0.035377
>
8
Coordinates from ORCA-job dihedral Relaxed Surface Scan Step 23
  C      -0.798556      0.113473     -0.270197
  C      -1.273362      1.541709     -0.002794
  H      -1.234938     -0.590826      0.430703
  H      -1.055290     -0.204757     -1.275816
  H       0.281156      0.041499     -0.179692
  H      -0.825199      1.942641      0.901007
  H      -0.991459      2.201934     -0.817522
  H      -2.352351      1.591329      0.102311
>
8
Coordinates from ORCA-job dihedral Relaxed Surface Scan Step 24
  C      -0.800348      0.111536     -0.269344
  C      -1.275765      1.541833     -0.001416
  H      -1.286027     -0.604637      0.385069
  H      -0.987718     -0.180709     -1.297705
  H       0.270592      0.025556     -0.111467
  H      -0.770824      1.971277      0.858034
  H      -1.054032      2.186280     -0.846846
  H      -2.345879      1.585864      0.171676
>
8
Coordinates from ORCA-job dihedral Relaxed Surface Scan Step 25
  C      -0.800547      0.109874     -0.269198
  C      -1.276920      1.542910     -0.000842
  H      -1.336890     -0.615788      0.332642
  H      -0.916619     -0.157326     -1.314498
  H       0.255762      0.004927     -0.040777
  H      -0.719255      2.000890      0.809582
  H      -1.122686      2.170842     -0.873133
  H      -2.332845      1.580672      0.244223
>
8
Coordinates from ORCA-job dihedral Relaxed Surface Scan Step 26
  C      -0.798876      0.108806     -0.269511
  C      -1.276718      1.544787     -0.001525
  H      -1.387371     -0.623247      0.272571
  H      -0.842106     -0.134471     -1.325900
  H       0.235687     -0.020065      0.032931
  H      -0.670666      2.031217      0.755508
  H      -1.197982      2.154632     -0.896114
  H      -2.311968      1.575341      0.320040
>
8
Coordinates from ORCA-job dihedral Relaxed Surface Scan Step 27
  C      -0.795540      0.108581     -0.269908
  C      -1.275359      1.547041     -0.003625
  H      -1.436387     -0.626316      0.204709
  H      -0.764787     -0.111936     -1.331546
  H       0.209114     -0.048184      0.109149
  H      -0.625420      2.061633      0.695963
  H      -1.279280      2.136148     -0.914957
  H      -2.282342      1.570033      0.398216
>
8
Coordinates from ORCA-job dihedral Relaxed Surface Scan Step 28
  C      -0.791289      0.109287     -0.270037
  C      -1.273316      1.549053     -0.006843
  H      -1.482089     -0.624861      0.130182
  H      -0.685896     -0.089475     -1.331135
  H       0.175084     -0.077504      0.185987
  H      -0.584035      2.091135      0.631579
  H      -1.364424      2.113981     -0.928408
  H      -2.244035      1.565384      0.476676
>
8
Coordinates from ORCA-job dihedral Relaxed Surface Scan Step 29
  C      -0.787207      0.110773     -0.269722
  C      -1.271196      1.550247     -0.010457
  H      -1.522478     -0.619420      0.051580
  H      -0.607116     -0.066884     -1.324574
  H       0.133647     -0.106113      0.260400
  H      -0.547065      2.118551      0.563453
  H      -1.450068      2.087688     -0.935228
  H      -2.198517      1.562159      0.552550
>
8
Coordinates from ORCA-job dihedral Relaxed Surface Scan Step 30
  C      -0.784264      0.112663     -0.269006
  C      -1.269541      1.550344     -0.013618
  H      -1.556180     -0.611139     -0.027811
  H      -0.530086     -0.044108     -1.312030
  H       0.086117     -0.132841      0.329214
  H      -0.514949      2.142928      0.492855
  H      -1.532752      2.058160     -0.934784
  H      -2.148344      1.560994      0.623179
>
8
Coordinates from ORCA-job dihedral Relaxed Surface Scan Step 31
  C      -0.783035      0.114501     -0.268168
  C      -1.268624      1.549433     -0.015598
  H      -1.582823     -0.601374     -0.105193
  H      -0.456004     -0.021462     -1.293868
  H       0.034618     -0.157412      0.390134
  H      -0.488040      2.163914      0.420978
  H      -1.609888      2.027158     -0.927285
  H      -2.096205      1.562243      0.687001
>
8
Coordinates from ORCA-job dihedral Relaxed Surface Scan Step 32
  C      -0.783498      0.115876     -0.267334
  C      -1.268586      1.547874     -0.016206
  H      -1.602726     -0.591494     -0.179294
  H      -0.385363      0.001010     -1.270464
  H      -0.018937     -0.180417      0.442540
  H      -0.466270      2.181365      0.348421
  H      -1.680681      1.996441     -0.913552
  H      -2.043940      1.566344      0.743889
>
8
Coordinates from ORCA-job dihedral Relaxed Surface Scan Step 33
  C      -0.785371      0.116609     -0.266834
  C      -1.269193      1.546070     -0.015386
  H      -1.616595     -0.582128     -0.250019
  H      -0.318218      0.022585     -1.242177
  H      -0.073231     -0.202616      0.486739
  H      -0.449824      2.195904      0.275673
  H      -1.745325      1.967256     -0.894489
  H      -1.992242      1.573321      0.794494
>
8
Coordinates from ORCA-job dihedral Relaxed Surface Scan Step 34
  C      -0.788091      0.116692     -0.266861
  C      -1.270107      1.544417     -0.013427
  H      -1.625135     -0.573223     -0.318182
  H      -0.254233      0.042480     -1.209249
  H      -0.127862     -0.224888      0.523786
  H      -0.438866      2.208386      0.202885
  H      -1.804958      1.940163     -0.870762
  H      -1.940748      1.582973      0.839810
>
8
Coordinates from ORCA-job dihedral Relaxed Surface Scan Step 35
  C      -0.791011      0.116235     -0.267495
  C      -1.270971      1.543239     -0.010781
  H      -1.628816     -0.564241     -0.384959
  H      -0.192941      0.059811     -1.171814
  H      -0.183146     -0.247954      0.554912
  H      -0.433650      2.219788      0.130075
  H      -1.861007      1.915130     -0.842670
  H      -1.888457      1.594992      0.880732
>
8
Coordinates from ORCA-job dihedral Relaxed Surface Scan Step 36
  C      -0.793534      0.115336     -0.268575
  C      -1.271628      1.542764     -0.008009
  H      -1.627649     -0.554600     -0.451693
  H      -0.133930      0.074098     -1.129845
  H      -0.239924     -0.272379      0.581273
  H      -0.434329      2.230702      0.057080
  H      -1.914945      1.891723     -0.810143
  H      -1.834060      1.609356      0.917913
>
8
Coordinates from ORCA-job dihedral Relaxed Surface Scan Step 37
  C      -0.795132      0.114243     -0.270036
  C      -1.271789      1.543097     -0.005612
  H      -1.621550     -0.543190     -0.519283
  H      -0.076888      0.084296     -1.083347
  H      -0.299224     -0.298296      0.603657
  H      -0.441402      2.242092     -0.015996
  H      -1.967791      1.869190     -0.772878
  H      -1.776223      1.625568      0.951495
>
8
Coordinates from ORCA-job dihedral Relaxed Surface Scan Step 38
  C      -0.795533      0.113034     -0.271398
  C      -1.271660      1.544189     -0.004106
  H      -1.609713     -0.529575     -0.588788
  H      -0.021813      0.090748     -1.032103
  H      -0.362349     -0.325804      0.622619
  H      -0.454823      2.253635     -0.089395
  H      -2.020478      1.846665     -0.730242
  H      -1.713632      1.644108      0.981413
>
8
Coordinates from ORCA-job dihedral Relaxed Surface Scan Step 39
  C      -0.794695      0.111821     -0.272162
  C      -1.271517      1.545826     -0.003863
  H      -1.591143     -0.513207     -0.660781
  H       0.031052      0.094037     -0.975845
  H      -0.430553     -0.354751      0.638236
  H      -0.474531      2.264671     -0.163289
  H      -2.073422      1.823273     -0.681423
  H      -1.645191      1.665331      1.007127
>
8
Coordinates from ORCA-job dihedral Relaxed Surface Scan Step 40
  C      -0.792918      0.110791     -0.271965
  C      -1.271624      1.547577     -0.004949
  H      -1.564826     -0.493735     -0.735066
  H       0.081056      0.094991     -0.914493
  H      -0.504686     -0.384541      0.649986
  H      -0.500331      2.274174     -0.237515
  H      -2.126202      1.798233     -0.625669
  H      -1.570470      1.689511      1.027671
>
8
Coordinates from ORCA-job dihedral Relaxed Surface Scan Step 41
  C      -0.790664      0.110016     -0.270371
  C      -1.272420      1.548982     -0.007318
  H      -1.530320     -0.470661     -0.810427
  H       0.127428      0.095097     -0.847889
  H      -0.584654     -0.414627      0.656858
  H      -0.531743      2.280531     -0.312075
  H      -2.177732      1.771508     -0.562599
  H      -1.489895      1.716154      1.041822
>
8
Coordinates from ORCA-job dihedral Relaxed Surface Scan Step 42
  C      -0.788686      0.109733     -0.267669
  C      -1.273828      1.549511     -0.010323
  H      -1.488322     -0.444215     -0.884280
  H       0.168953      0.095049     -0.776844
  H      -0.668639     -0.443609      0.657489
  H      -0.568210      2.282764     -0.385811
  H      -2.225544      1.743551     -0.493129
  H      -1.405725      1.744216      1.048568
