
                                 *****************
                                 * O   R   C   A *
                                 *****************

           --- An Ab Initio, DFT and Semiempirical electronic structure package ---

                  #######################################################
                  #                        -***-                        #
                  #          Department of theory and spectroscopy      #
                  #               Directorship: Frank Neese             #
                  #        Max Planck Institute fuer Kohlenforschung    #
                  #                Kaiser Wilhelm Platz 1               #
                  #                 D-45470 Muelheim/Ruhr               #
                  #                      Germany                        #
                  #                                                     #
                  #                  All rights reserved                #
                  #                        -***-                        #
                  #######################################################


                         Program Version 4.2.1 -  RELEASE  -


 With contributions from (in alphabetic order):
   Daniel Aravena         : Magnetic Suceptibility
   Michael Atanasov       : Ab Initio Ligand Field Theory (pilot matlab implementation)
   Alexander A. Auer      : GIAO ZORA, VPT2
   Ute Becker             : Parallelization
   Giovanni Bistoni       : ED, misc. LED, open-shell LED, HFLD
   Martin Brehm           : Molecular dynamics
   Dmytro Bykov           : SCF Hessian
   Vijay G. Chilkuri      : MRCI spin determinant printing, contributions to CSF-ICE
   Dipayan Datta          : RHF DLPNO-CCSD density
   Achintya Kumar Dutta   : EOM-CC, STEOM-CC
   Dmitry Ganyushin       : Spin-Orbit,Spin-Spin,Magnetic field MRCI
   Miquel Garcia          : C-PCM Hessian, Gaussian charge scheme
   Yang Guo               : DLPNO-NEVPT2, CIM, IAO-localization
   Andreas Hansen         : Spin unrestricted coupled pair/coupled cluster methods
   Benjamin Helmich-Paris : CASSCF linear response (MC-RPA)
   Lee Huntington         : MR-EOM, pCC
   Robert Izsak           : Overlap fitted RIJCOSX, COSX-SCS-MP3, EOM
   Christian Kollmar      : KDIIS, OOCD, Brueckner-CCSD(T), CCSD density
   Simone Kossmann        : Meta GGA functionals, TD-DFT gradient, OOMP2, MP2 Hessian
   Martin Krupicka        : AUTO-CI
   Lucas Lang             : DCDCAS
   Dagmar Lenk            : GEPOL surface, SMD
   Dimitrios Liakos       : Extrapolation schemes; Compound Job, initial MDCI parallelization
   Dimitrios Manganas     : Further ROCIS development; embedding schemes
   Dimitrios Pantazis     : SARC Basis sets
   Taras Petrenko         : DFT Hessian,TD-DFT gradient, ASA, ECA, R-Raman, ABS, FL, XAS/XES, NRVS
   Peter Pinski           : DLPNO-MP2, DLPNO-MP2 Gradient
   Christoph Reimann      : Effective Core Potentials
   Marius Retegan         : Local ZFS, SOC
   Christoph Riplinger    : Optimizer, TS searches, QM/MM, DLPNO-CCSD(T), (RO)-DLPNO pert. Triples
   Tobias Risthaus        : Range-separated hybrids, TD-DFT gradient, RPA, STAB
   Michael Roemelt        : Original ROCIS implementation
   Masaaki Saitow         : Open-shell DLPNO-CCSD energy and density
   Barbara Sandhoefer     : DKH picture change effects
   Avijit Sen             : IP-ROCIS
   Kantharuban Sivalingam : CASSCF convergence, NEVPT2, FIC-MRCI
   Bernardo de Souza      : ESD, SOC TD-DFT
   Georgi Stoychev        : AutoAux, RI-MP2 NMR
   Willem Van den Heuvel  : Paramagnetic NMR
   Boris Wezisla          : Elementary symmetry handling
   Frank Wennmohs         : Technical directorship


 We gratefully acknowledge several colleagues who have allowed us to
 interface, adapt or use parts of their codes:
   Stefan Grimme, W. Hujo, H. Kruse,             : VdW corrections, initial TS optimization,
                  C. Bannwarth                     DFT functionals, gCP, sTDA/sTD-DF
   Ed Valeev, F. Pavosevic, A. Kumar             : LibInt (2-el integral package), F12 methods
   Garnet Chan, S. Sharma, J. Yang, R. Olivares  : DMRG
   Ulf Ekstrom                                   : XCFun DFT Library
   Mihaly Kallay                                 : mrcc  (arbitrary order and MRCC methods)
   Andreas Klamt, Michael Diedenhofen            : otool_cosmo (COSMO solvation model)
   Jiri Pittner, Ondrej Demel                    : Mk-CCSD
   Frank Weinhold                                : gennbo (NPA and NBO analysis)
   Christopher J. Cramer and Donald G. Truhlar   : smd solvation model
   Lars Goerigk                                  : TD-DFT with DH, B97 family of functionals
   V. Asgeirsson, H. Jonsson                     : NEB implementation
   FAccTs GmbH                                   : IRC, NEB, NEB-TS, Multilevel, MM, QM/MM, CI optimization
   S Lehtola, MJT Oliveira, MAL Marques          : LibXC Library


 Your calculation uses the libint2 library for the computation of 2-el integrals
 For citations please refer to: http://libint.valeyev.net

 Your ORCA version has been built with support for libXC version: 4.2.3
 For citations please refer to: https://tddft.org/programs/libxc/

 This ORCA versions uses:
   CBLAS   interface :  Fast vector & matrix operations
   LAPACKE interface :  Fast linear algebra routines
   SCALAPACK package :  Parallel linear algebra routines




***************************************
The coordinates will be read from file: ethane.xyz
***************************************


----- Orbital basis set information -----
Your calculation utilizes the basis: 6-31G*
   H-He, Li-Ne : W. J. Hehre, R. Ditchfield and J.A. Pople, J. Chem. Phys. 56, 2257 (1972).
                 Note: He and Ne are unpublished basis sets taken from the Gaussian program.
                 Note: Li and B from J. D. Dill and J. A. Pople, J. Chem. Phys. 62, 2921 (1975).
   Na - Ar     : M. M. Francl, W. J. Pietro, W. J. Hehre, J. S. Binkley, M. S. Gordon, 
                 D. J. DeFrees and J. A. Pople, J. Chem. Phys. 77, 3654 (1982).
   K - Zn      : V. A. Rassolov, J. A. Pople, M. A. Ratner, and T. L. Windus, J. Chem. Phys. 109, 1223 (1998).

================================================================================
                                        WARNINGS
                       Please study these warnings very carefully!
================================================================================


WARNING: Geometry Optimization
  ===> : Switching off AutoStart
         For restart on a previous wavefunction, please use MOREAD

INFO   : the flag for use of LIBINT has been found!

================================================================================
                                       INPUT FILE
================================================================================
NAME = scan.inp
|  1> ! HF 6-31G* opt
|  2> 
|  3> %scf MaxIter 300 end
|  4> #%maxcore 2000
|  5> #%pal nprocs 10 end
|  6> 
|  7> %geom scan
|  8> #dihedral
|  9> #atom number starts from zero
| 10> D 5 1 0 3 = 0, 360, 42
| 11> end
| 12> end
| 13> 
| 14> *xyzfile 0 1 ethane.xyz
| 15> %base "dihedral"
| 16> 
| 17> 
| 18>                          ****END OF INPUT****
================================================================================

                       ******************************
                       *    Relaxed Surface Scan    *
                       ******************************

        Dihedral (  5,   1,   0,   3):   range=   0.00000000 .. 360.00000000  steps =   42

There is 1 parameter to be scanned.
There will be   42 constrained geometry optimizations.


         *************************************************************
         *               RELAXED SURFACE SCAN STEP   1               *
         *                                                           *
         *   Dihedral (  5,   1,   0,   3)  :   0.00000000           *
         *************************************************************

Geometry optimization settings:
Update method            Update   .... BFGS
Choice of coordinates    CoordSys .... Z-matrix Internals
Initial Hessian          InHess   .... Almoef's Model

Convergence Tolerances:
Energy Change            TolE     ....  5.0000e-06 Eh
Max. Gradient            TolMAXG  ....  3.0000e-04 Eh/bohr
RMS Gradient             TolRMSG  ....  1.0000e-04 Eh/bohr
Max. Displacement        TolMAXD  ....  4.0000e-03 bohr
RMS Displacement         TolRMSD  ....  2.0000e-03 bohr
Strict Convergence                ....  False
------------------------------------------------------------------------------
                        ORCA OPTIMIZATION COORDINATE SETUP
------------------------------------------------------------------------------

The optimization will be done in new redundant internal coordinates
Making redundant internal coordinates   ...  (new redundants) done
Evaluating the initial hessian          ...  (Almloef) done
Evaluating the coordinates              ...  done
Calculating the B-matrix                .... done
Calculating the G-matrix                .... done
Diagonalizing the G-matrix              .... done
Imposing constraints:
 Iter   0:  RMS(Cart)=    0.0056215495 RMS(Int)=    0.0399719814
 Iter   1:  RMS(Cart)=    0.0033672159 RMS(Int)=    0.0239480018
 Iter   2:  RMS(Cart)=    0.0020173654 RMS(Int)=    0.0143509528
 Iter   3:  RMS(Cart)=    0.0012089157 RMS(Int)=    0.0086013117
 Iter   4:  RMS(Cart)=    0.0007245694 RMS(Int)=    0.0051558117
 Iter   5:  RMS(Cart)=    0.0004343225 RMS(Int)=    0.0030907240
 Iter   6:  RMS(Cart)=    0.0002603607 RMS(Int)=    0.0018528595
 Iter   7:  RMS(Cart)=    0.0001560838 RMS(Int)=    0.0011108015
 Iter   8:  RMS(Cart)=    0.0000935733 RMS(Int)=    0.0006659437
 Iter   9:  RMS(Cart)=    0.0000560987 RMS(Int)=    0.0003992481
 Iter  10:  RMS(Cart)=    0.0000336324 RMS(Int)=    0.0002393595
 Iter  11:  RMS(Cart)=    0.0000201635 RMS(Int)=    0.0001435027
 Iter  12:  RMS(Cart)=    0.0000120886 RMS(Int)=    0.0000860341
 Iter  13:  RMS(Cart)=    0.0000072475 RMS(Int)=    0.0000515800
 Iter  14:  RMS(Cart)=    0.0000043451 RMS(Int)=    0.0000309238
 Iter  15:  RMS(Cart)=    0.0000026050 RMS(Int)=    0.0000185398
 Iter  16:  RMS(Cart)=    0.0000015618 RMS(Int)=    0.0000111152
 Iter  17:  RMS(Cart)=    0.0000009363 RMS(Int)=    0.0000066639
 Iter  18:  RMS(Cart)=    0.0000005614 RMS(Int)=    0.0000039952
 Iter  19:  RMS(Cart)=    0.0000003366 RMS(Int)=    0.0000023953
 Iter  20:  RMS(Cart)=    0.0000002018 RMS(Int)=    0.0000014360
 Iter  21:  RMS(Cart)=    0.0000001210 RMS(Int)=    0.0000008609
 Iter  22:  RMS(Cart)=    0.0000000725 RMS(Int)=    0.0000005162
 Iter  23:  RMS(Cart)=    0.0000000435 RMS(Int)=    0.0000003095
 Iter  24:  RMS(Cart)=    0.0000000261 RMS(Int)=    0.0000001855
 Iter  25:  RMS(Cart)=    0.0000000156 RMS(Int)=    0.0000001112
 Iter  26:  RMS(Cart)=    0.0000000094 RMS(Int)=    0.0000000667
CONVERGED
The first mode is                       ....   10
The number of degrees of freedom        ....   18
Storing new coordinates                 .... done

    -----------------------------------------------------------------
                    Redundant Internal Coordinates


    -----------------------------------------------------------------
         Definition                    Initial Value    Approx d2E/dq
    -----------------------------------------------------------------
      1. B(C   1,C   0)                  1.5402         0.360042   
      2. B(H   2,C   0)                  1.0900         0.360155   
      3. B(H   3,C   0)                  1.0902         0.360390   
      4. B(H   4,C   0)                  1.0901         0.360030   
      5. B(H   5,C   1)                  1.0901         0.360466   
      6. B(H   6,C   1)                  1.0907         0.359174   
      7. B(H   7,C   1)                  1.0899         0.360282   
      8. A(H   2,C   0,H   3)          110.8556         0.290883   
      9. A(H   3,C   0,H   4)          108.1559         0.290867   
     10. A(H   2,C   0,H   4)          109.3665         0.290837   
     11. A(C   1,C   0,H   3)          109.4797         0.322404   
     12. A(C   1,C   0,H   2)          110.1422         0.322370   
     13. A(C   1,C   0,H   4)          108.7905         0.322352   
     14. A(C   0,C   1,H   5)          109.4233         0.322416   
     15. A(C   0,C   1,H   6)          108.7862         0.322226   
     16. A(H   5,C   1,H   6)          108.1112         0.290768   
     17. A(C   0,C   1,H   7)          110.2122         0.322389   
     18. A(H   5,C   1,H   7)          110.7758         0.290909   
     19. A(H   6,C   1,H   7)          109.4811         0.290745   
     20. D(H   5,C   1,C   0,H   4)    118.0007         0.010400   
     21. D(H   6,C   1,C   0,H   2)     -4.2267         0.010400   
     22. D(H   6,C   1,C   0,H   3)    117.9120         0.010400   
     23. D(H   6,C   1,C   0,H   4)   -124.0873         0.010400   
     24. D(H   7,C   1,C   0,H   2)    115.8140         0.010400   
     25. D(H   7,C   1,C   0,H   3)   -122.0474         0.010400   
     26. D(H   7,C   1,C   0,H   4)     -4.0467         0.010400   
     27. D(H   5,C   1,C   0,H   2)   -122.1387         0.010400   
     28. D(H   5,C   1,C   0,H   3)     -0.0000         0.010400 C 
    -----------------------------------------------------------------

Number of atoms                         .... 8
Number of degrees of freedom            .... 28

         *************************************************************
         *                GEOMETRY OPTIMIZATION CYCLE   1            *
         *************************************************************
---------------------------------
CARTESIAN COORDINATES (ANGSTROEM)
---------------------------------
  C     -0.790319    0.110002   -0.270049
  C     -1.272064    1.549261   -0.008272
  H      0.183968   -0.049535    0.191822
  H     -1.524583   -0.595600    0.119183
  H     -0.709546   -0.042942   -1.346294
  H     -2.233687    1.522057    0.504502
  H     -0.553725    2.046857    0.644430
  H     -1.350043    2.096900   -0.947322

----------------------------
CARTESIAN COORDINATES (A.U.)
----------------------------
  NO LB      ZA    FRAG     MASS         X           Y           Z
   0 C     6.0000    0    12.011   -1.493486    0.207873   -0.510318
   1 C     6.0000    0    12.011   -2.403853    2.927680   -0.015632
   2 H     1.0000    0     1.008    0.347650   -0.093607    0.362492
   3 H     1.0000    0     1.008   -2.881045   -1.125520    0.225224
   4 H     1.0000    0     1.008   -1.340848   -0.081148   -2.544126
   5 H     1.0000    0     1.008   -4.221056    2.876270    0.953370
   6 H     1.0000    0     1.008   -1.046390    3.867998    1.217796
   7 H     1.0000    0     1.008   -2.551212    3.962566   -1.790179

--------------------------------
INTERNAL COORDINATES (ANGSTROEM)
--------------------------------
 C      0   0   0     0.000000000000     0.00000000     0.00000000
 C      1   0   0     1.540043505879     0.00000000     0.00000000
 H      1   2   0     1.089958256081   109.46478691     0.00000000
 H      1   2   3     1.089780711887   109.50889886   120.06143009
 H      1   2   3     1.090053209710   109.46917691   240.13348529
 H      2   1   3     1.089723359390   109.45173526   236.11504976
 H      2   1   3     1.090701150637   109.46376517   356.09633768
 H      2   1   3     1.089862376633   109.53602658   116.14351109

---------------------------
INTERNAL COORDINATES (A.U.)
---------------------------
 C      0   0   0     0.000000000000     0.00000000     0.00000000
 C      1   0   0     2.910260460435     0.00000000     0.00000000
 H      1   2   0     2.059722601400   109.46478691     0.00000000
 H      1   2   3     2.059387091495   109.50889886   120.06143009
 H      1   2   3     2.059902037755   109.46917691   240.13348529
 H      2   1   3     2.059278710984   109.45173526   236.11504976
 H      2   1   3     2.061126468656   109.46376517   356.09633768
 H      2   1   3     2.059541415501   109.53602658   116.14351109

---------------------
BASIS SET INFORMATION
---------------------
There are 2 groups of distinct atoms

 Group   1 Type C   : 10s4p1d contracted to 3s2p1d pattern {631/31/1}
 Group   2 Type H   : 4s contracted to 2s pattern {31}

Atom   0C    basis set group =>   1
Atom   1C    basis set group =>   1
Atom   2H    basis set group =>   2
Atom   3H    basis set group =>   2
Atom   4H    basis set group =>   2
Atom   5H    basis set group =>   2
Atom   6H    basis set group =>   2
Atom   7H    basis set group =>   2
------------------------------------------------------------------------------
                           ORCA GTO INTEGRAL CALCULATION
------------------------------------------------------------------------------

                         BASIS SET STATISTICS AND STARTUP INFO

 # of primitive gaussian shells          ...   54
 # of primitive gaussian functions       ...   78
 # of contracted shells                  ...   24
 # of contracted basis functions         ...   40
 Highest angular momentum                ...    2
 Maximum contraction depth               ...    6
 Integral package used                   ... LIBINT
 Integral threshhold            Thresh   ...  2.500e-11
 Primitive cut-off              TCut     ...  2.500e-12


------------------------------ INTEGRAL EVALUATION ----------------------------


 * One electron integrals 
 Pre-screening matrix                    ... done
 Shell pair data                         ... done (   0.000 sec)

-------------------------------------------------------------------------------
                                 ORCA SCF
-------------------------------------------------------------------------------

------------
SCF SETTINGS
------------
Hamiltonian:
 Ab initio Hamiltonian  Method          .... Hartree-Fock(GTOs)


General Settings:
 Integral files         IntName         .... dihedral
 Hartree-Fock type      HFTyp           .... RHF
 Total Charge           Charge          ....    0
 Multiplicity           Mult            ....    1
 Number of Electrons    NEL             ....   18
 Basis Dimension        Dim             ....   40
 Nuclear Repulsion      ENuc            ....     42.2360292926 Eh

Convergence Acceleration:
 DIIS                   CNVDIIS         .... on
   Start iteration      DIISMaxIt       ....    12
   Startup error        DIISStart       ....  0.200000
   # of expansion vecs  DIISMaxEq       ....     5
   Bias factor          DIISBfac        ....   1.050
   Max. coefficient     DIISMaxC        ....  10.000
 Newton-Raphson         CNVNR           .... off
 SOSCF                  CNVSOSCF        .... on
   Start iteration      SOSCFMaxIt      ....   150
   Startup grad/error   SOSCFStart      ....  0.003300
 Level Shifting         CNVShift        .... on
   Level shift para.    LevelShift      ....    0.2500
   Turn off err/grad.   ShiftErr        ....    0.0010
 Zerner damping         CNVZerner       .... off
 Static damping         CNVDamp         .... on
   Fraction old density DampFac         ....    0.7000
   Max. Damping (<1)    DampMax         ....    0.9800
   Min. Damping (>=0)   DampMin         ....    0.0000
   Turn off err/grad.   DampErr         ....    0.1000
 Fernandez-Rico         CNVRico         .... off

SCF Procedure:
 Maximum # iterations   MaxIter         ....   300
 SCF integral mode      SCFMode         .... Direct
   Integral package                     .... LIBINT
 Reset frequency        DirectResetFreq ....    20
 Integral Threshold     Thresh          ....  2.500e-11 Eh
 Primitive CutOff       TCut            ....  2.500e-12 Eh

Convergence Tolerance:
 Convergence Check Mode ConvCheckMode   .... Total+1el-Energy
 Convergence forced     ConvForced      .... 0
 Energy Change          TolE            ....  1.000e-08 Eh
 1-El. energy change                    ....  1.000e-05 Eh
 Orbital Gradient       TolG            ....  1.000e-05
 Orbital Rotation angle TolX            ....  1.000e-05
 DIIS Error             TolErr          ....  5.000e-07


Diagonalization of the overlap matrix:
Smallest eigenvalue                        ... 8.871e-03
Time for diagonalization                   ...    0.005 sec
Threshold for overlap eigenvalues          ... 1.000e-08
Number of eigenvalues below threshold      ... 0
Time for construction of square roots      ...    0.001 sec
Total time needed                          ...    0.005 sec

-------------------
DFT GRID GENERATION
-------------------

General Integration Accuracy     IntAcc      ...  4.340
Radial Grid Type                 RadialGrid  ... Gauss-Chebyshev
Angular Grid (max. acc.)         AngularGrid ... Lebedev-110
Angular grid pruning method      GridPruning ... 3 (G Style)
Weight generation scheme         WeightScheme... Becke
Basis function cutoff            BFCut       ...    1.0000e-11
Integration weight cutoff        WCut        ...    1.0000e-14
Grids for H and He will be reduced by one unit

# of grid points (after initial pruning)     ...   8076 (   0.0 sec)
# of grid points (after weights+screening)   ...   7782 (   0.0 sec)
nearest neighbour list constructed           ...    0.0 sec
Grid point re-assignment to atoms done       ...    0.0 sec
Grid point division into batches done        ...    0.0 sec
Reduced shell lists constructed in    0.0 sec

Total number of grid points                  ...     7782
Total number of batches                      ...      124
Average number of points per batch           ...       62
Average number of grid points per atom       ...      973
Average number of shells per batch           ...    21.74 (90.60%)
Average number of basis functions per batch  ...    36.48 (91.20%)
Average number of large shells per batch     ...    19.83 (91.21%)
Average number of large basis fcns per batch ...    33.94 (93.05%)
Maximum spatial batch extension              ...  26.51, 20.50, 18.49 au
Average spatial batch extension              ...   4.43,  4.60,  4.30 au

Time for grid setup =    0.022 sec

------------------------------
INITIAL GUESS: MODEL POTENTIAL
------------------------------
Loading Hartree-Fock densities                     ... done
Calculating cut-offs                               ... done
Setting up the integral package                    ... done
Initializing the effective Hamiltonian             ... done
Starting the Coulomb interaction                   ... done (   0.0 sec)
Reading the grid                                   ... done
Mapping shells                                     ... done
Starting the XC term evaluation                    ... done (   0.0 sec)
Transforming the Hamiltonian                       ... done (   0.0 sec)
Diagonalizing the Hamiltonian                      ... done (   0.0 sec)
Back transforming the eigenvectors                 ... done (   0.0 sec)
Now organizing SCF variables                       ... done
                      ------------------
                      INITIAL GUESS DONE (   0.1 sec)
                      ------------------
--------------
SCF ITERATIONS
--------------
ITER       Energy         Delta-E        Max-DP      RMS-DP      [F,P]     Damp
               ***  Starting incremental Fock matrix formation  ***
  0    -79.0677670265   0.000000000000 0.05666950  0.00433083  0.2073745 0.7000
  1    -79.1235371104  -0.055770083976 0.04292856  0.00343000  0.1351742 0.7000
                               ***Turning on DIIS***
  2    -79.1566855448  -0.033148434342 0.08984060  0.00738544  0.0802865 0.0000
  3    -78.9877815167   0.168904028066 0.02053443  0.00188638  0.0317266 0.0000
  4    -79.2045369978  -0.216755481069 0.00339149  0.00037425  0.0042526 0.0000
                      *** Initiating the SOSCF procedure ***
                           *** Shutting down DIIS ***
                      *** Re-Reading the Fockian *** 
                      *** Removing any level shift *** 
ITER      Energy       Delta-E        Grad      Rot      Max-DP    RMS-DP
  5    -79.22046416  -0.0159271603  0.001927  0.001927  0.001415  0.000176
               *** Restarting incremental Fock matrix formation ***
  6    -79.22149657  -0.0010324103  0.000427  0.000525  0.000707  0.000072
  7    -79.22149806  -0.0000014880  0.000136  0.000285  0.000335  0.000036
  8    -79.22149826  -0.0000002042  0.000009  0.000004  0.000017  0.000001
  9    -79.22149826  -0.0000000005  0.000004  0.000002  0.000003  0.000000
                 **** Energy Check signals convergence ****
              ***Rediagonalizing the Fockian in SOSCF/NRSCF***

               *****************************************************
               *                     SUCCESS                       *
               *           SCF CONVERGED AFTER  10 CYCLES          *
               *****************************************************


----------------
TOTAL SCF ENERGY
----------------

Total Energy       :          -79.22149826 Eh           -2155.72656 eV

Components:
Nuclear Repulsion  :           42.23602929 Eh            1149.30079 eV
Electronic Energy  :         -121.45752755 Eh           -3305.02735 eV
One Electron Energy:         -189.04326961 Eh           -5144.12889 eV
Two Electron Energy:           67.58574206 Eh            1839.10154 eV

Virial components:
Potential Energy   :         -158.51313566 Eh           -4313.36171 eV
Kinetic Energy     :           79.29163740 Eh            2157.63515 eV
Virial Ratio       :            1.99911543


---------------
SCF CONVERGENCE
---------------

  Last Energy change         ...    3.8057e-11  Tolerance :   1.0000e-08
  Last MAX-Density change    ...    4.5722e-07  Tolerance :   1.0000e-07
  Last RMS-Density change    ...    4.8216e-08  Tolerance :   5.0000e-09
  Last Orbital Gradient      ...    4.0039e-07  Tolerance :   1.0000e-05
  Last Orbital Rotation      ...    4.3392e-07  Tolerance :   1.0000e-05

             **** THE GBW FILE WAS UPDATED (dihedral.gbw) ****
             **** DENSITY FILE WAS UPDATED (dihedral.scfp) ****
             **** ENERGY FILE WAS UPDATED (dihedral.en.tmp) ****
             **** THE GBW FILE WAS UPDATED (dihedral.gbw) ****
             **** DENSITY FILE WAS UPDATED (dihedral.scfp) ****
----------------
ORBITAL ENERGIES
----------------

  NO   OCC          E(Eh)            E(eV) 
   0   2.0000     -11.206644      -304.9483 
   1   2.0000     -11.206101      -304.9335 
   2   2.0000      -1.015840       -27.6424 
   3   2.0000      -0.836833       -22.7714 
   4   2.0000      -0.601186       -16.3591 
   5   2.0000      -0.600814       -16.3490 
   6   2.0000      -0.495888       -13.4938 
   7   2.0000      -0.486619       -13.2416 
   8   2.0000      -0.485967       -13.2238 
   9   0.0000       0.239756         6.5241 
  10   0.0000       0.281053         7.6478 
  11   0.0000       0.281123         7.6497 
  12   0.0000       0.306101         8.3294 
  13   0.0000       0.395542        10.7632 
  14   0.0000       0.396074        10.7777 
  15   0.0000       0.407812        11.0971 
  16   0.0000       0.708686        19.2843 
  17   0.0000       0.739056        20.1107 
  18   0.0000       0.739446        20.1213 
  19   0.0000       0.884578        24.0706 
  20   0.0000       0.885955        24.1081 
  21   0.0000       0.940177        25.5835 
  22   0.0000       1.130969        30.7752 
  23   0.0000       1.131122        30.7794 
  24   0.0000       1.197998        32.5992 
  25   0.0000       1.209389        32.9091 
  26   0.0000       1.210288        32.9336 
  27   0.0000       1.262084        34.3431 
  28   0.0000       1.271614        34.6024 
  29   0.0000       1.729173        47.0532 
  30   0.0000       1.757457        47.8228 
  31   0.0000       1.759150        47.8689 
  32   0.0000       2.253599        61.3235 
  33   0.0000       2.398647        65.2705 
  34   0.0000       2.403343        65.3983 
  35   0.0000       2.474692        67.3398 
  36   0.0000       2.479576        67.4727 
  37   0.0000       2.738761        74.5255 
  38   0.0000       2.739429        74.5436 
  39   0.0000       2.942475        80.0688 

                    ********************************
                    * MULLIKEN POPULATION ANALYSIS *
                    ********************************

-----------------------
MULLIKEN ATOMIC CHARGES
-----------------------
   0 C :   -0.496317
   1 C :   -0.496337
   2 H :    0.166485
   3 H :    0.165529
   4 H :    0.164363
   5 H :    0.165472
   6 H :    0.164234
   7 H :    0.166571
Sum of atomic charges:    0.0000000

--------------------------------
MULLIKEN REDUCED ORBITAL CHARGES
--------------------------------
  0 C s       :     3.321213  s :     3.321213
      pz      :     1.082652  p :     3.127913
      px      :     1.074361
      py      :     0.970900
      dz2     :     0.013913  d :     0.047191
      dxz     :     0.006850
      dyz     :     0.005322
      dx2y2   :     0.010067
      dxy     :     0.011040
  1 C s       :     3.321315  s :     3.321315
      pz      :     1.083034  p :     3.127836
      px      :     1.073792
      py      :     0.971009
      dz2     :     0.006301  d :     0.047186
      dxz     :     0.011122
      dyz     :     0.011717
      dx2y2   :     0.011005
      dxy     :     0.007041
  2 H s       :     0.833515  s :     0.833515
  3 H s       :     0.834471  s :     0.834471
  4 H s       :     0.835637  s :     0.835637
  5 H s       :     0.834528  s :     0.834528
  6 H s       :     0.835766  s :     0.835766
  7 H s       :     0.833429  s :     0.833429


                     *******************************
                     * LOEWDIN POPULATION ANALYSIS *
                     *******************************

----------------------
LOEWDIN ATOMIC CHARGES
----------------------
   0 C :   -0.370063
   1 C :   -0.370013
   2 H :    0.123973
   3 H :    0.123430
   4 H :    0.122670
   5 H :    0.123376
   6 H :    0.122630
   7 H :    0.123998

-------------------------------
LOEWDIN REDUCED ORBITAL CHARGES
-------------------------------
  0 C s       :     2.974358  s :     2.974358
      pz      :     1.126673  p :     3.318443
      px      :     1.120837
      py      :     1.070933
      dz2     :     0.021373  d :     0.077262
      dxz     :     0.009921
      dyz     :     0.009899
      dx2y2   :     0.017264
      dxy     :     0.018804
  1 C s       :     2.974429  s :     2.974429
      pz      :     1.125056  p :     3.318334
      px      :     1.122292
      py      :     1.070986
      dz2     :     0.009748  d :     0.077251
      dxz     :     0.016409
      dyz     :     0.019729
      dx2y2   :     0.018700
      dxy     :     0.012665
  2 H s       :     0.876027  s :     0.876027
  3 H s       :     0.876570  s :     0.876570
  4 H s       :     0.877330  s :     0.877330
  5 H s       :     0.876624  s :     0.876624
  6 H s       :     0.877370  s :     0.877370
  7 H s       :     0.876002  s :     0.876002


                      *****************************
                      * MAYER POPULATION ANALYSIS *
                      *****************************

  NA   - Mulliken gross atomic population
  ZA   - Total nuclear charge
  QA   - Mulliken gross atomic charge
  VA   - Mayer's total valence
  BVA  - Mayer's bonded valence
  FA   - Mayer's free valence

  ATOM       NA         ZA         QA         VA         BVA        FA
  0 C      6.4963     6.0000    -0.4963     3.7915     3.7915     0.0000
  1 C      6.4963     6.0000    -0.4963     3.7915     3.7915     0.0000
  2 H      0.8335     1.0000     0.1665     0.9304     0.9304    -0.0000
  3 H      0.8345     1.0000     0.1655     0.9298     0.9298    -0.0000
  4 H      0.8356     1.0000     0.1644     0.9290     0.9290    -0.0000
  5 H      0.8345     1.0000     0.1655     0.9297     0.9297    -0.0000
  6 H      0.8358     1.0000     0.1642     0.9292     0.9292    -0.0000
  7 H      0.8334     1.0000     0.1666     0.9304     0.9304    -0.0000

  Mayer bond orders larger than 0.100000
B(  0-C ,  1-C ) :   0.9450 B(  0-C ,  2-H ) :   0.9633 B(  0-C ,  3-H ) :   0.9637 
B(  0-C ,  4-H ) :   0.9641 B(  1-C ,  5-H ) :   0.9638 B(  1-C ,  6-H ) :   0.9642 
B(  1-C ,  7-H ) :   0.9633 

-------
TIMINGS
-------

Total SCF time: 0 days 0 hours 0 min 1 sec 

Total time                  ....       1.363 sec
Sum of individual times     ....       1.232 sec  ( 90.4%)

Fock matrix formation       ....       1.132 sec  ( 83.1%)
Diagonalization             ....       0.001 sec  (  0.1%)
Density matrix formation    ....       0.000 sec  (  0.0%)
Population analysis         ....       0.001 sec  (  0.1%)
Initial guess               ....       0.070 sec  (  5.1%)
Orbital Transformation      ....       0.000 sec  (  0.0%)
Orbital Orthonormalization  ....       0.000 sec  (  0.0%)
DIIS solution               ....       0.003 sec  (  0.2%)
SOSCF solution              ....       0.002 sec  (  0.1%)

-------------------------   --------------------
FINAL SINGLE POINT ENERGY       -79.221498261070
-------------------------   --------------------

------------------------------------------------------------------------------
                         ORCA SCF GRADIENT CALCULATION
------------------------------------------------------------------------------

Gradient of the Hartree-Fock SCF energy:
Hartree-Fock type                ... RHF
Number of operators              ...    1
Number of atoms                  ...    8
Basis set dimensions             ...   40
Integral neglect threshold       ... 2.5e-11
Integral primitive cutoff        ... 2.5e-12

Nuclear repulsion gradient       ... done
One Electron Gradient            ... done
Pre-screening matrix             ... done
Starting the two electron gradient:
Two electron gradient done

------------------
CARTESIAN GRADIENT
------------------

   1   C   :    0.004709164   -0.004761123    0.005333423
   2   C   :   -0.004813182    0.004665055   -0.005704096
   3   H   :    0.005302696    0.005849315    0.003300835
   4   H   :   -0.008710230    0.002197820    0.001150428
   5   H   :   -0.002957590    0.005915511   -0.005140511
   6   H   :   -0.002622714   -0.007148233    0.004824893
   7   H   :    0.006372787   -0.004428340    0.003879821
   8   H   :    0.002719069   -0.002290005   -0.007644793

Difference to translation invariance:
           :   -0.0000000000    0.0000000000   -0.0000000000

Norm of the cartesian gradient     ...    0.0245720070
RMS gradient                       ...    0.0050157399
MAX gradient                       ...    0.0087102297

-------
TIMINGS
-------

Total SCF gradient time            ...        0.198 sec

One electron gradient       ....       0.005 sec  (  2.5%)
Prescreening matrices       ....       0.006 sec  (  2.9%)
Two electron gradient       ....       0.117 sec  ( 59.1%)
------------------------------------------------------------------------------
                         ORCA GEOMETRY RELAXATION STEP
------------------------------------------------------------------------------

Reading the OPT-File                    .... done
Getting information on internals        .... done
Copying old internal coords+grads       .... done
Making the new internal coordinates     .... (new redundants).... done
Validating the new internal coordinates .... (new redundants).... done
Calculating the B-matrix                .... done
Calculating the G,G- and P matrices     .... done
Transforming gradient to internals      .... done
Projecting the internal gradient        .... done
Number of atoms                         ....   8
Number of internal coordinates          ....  28
Current Energy                          ....   -79.221498261 Eh
Current gradient norm                   ....     0.024572007 Eh/bohr
Maximum allowed component of the step   ....  0.300
Current trust radius                    ....  0.300
Evaluating the initial hessian          ....  (Almloef) done
Projecting the Hessian                  .... done
Forming the augmented Hessian           .... done
Diagonalizing the augmented Hessian     .... done
Last element of RFO vector              ....  0.994534387
Lowest eigenvalues of augmented Hessian:
 -0.002759449  0.038022100  0.107684273  0.109843597  0.111864672
Length of the computed step             ....  0.104983341
The final length of the internal step   ....  0.104983341
Converting the step to cartesian space:
 Initial RMS(Int)=    0.0198399866
Transforming coordinates:
 Iter   0:  RMS(Cart)=    0.0318093019 RMS(Int)=    0.0200279920
 Iter   1:  RMS(Cart)=    0.0005398777 RMS(Int)=    0.0004230911
 Iter   2:  RMS(Cart)=    0.0000115488 RMS(Int)=    0.0000101757
 Iter   3:  RMS(Cart)=    0.0000001700 RMS(Int)=    0.0000001553
 Iter   4:  RMS(Cart)=    0.0000000068 RMS(Int)=    0.0000000054
Imposing constraints:
 Iter   0:  RMS(Cart)=    0.0000183393 RMS(Int)=    0.0001284291
 Iter   1:  RMS(Cart)=    0.0000108283 RMS(Int)=    0.0000758300
 Iter   2:  RMS(Cart)=    0.0000063935 RMS(Int)=    0.0000447732
 Iter   3:  RMS(Cart)=    0.0000037750 RMS(Int)=    0.0000264360
 Iter   4:  RMS(Cart)=    0.0000022289 RMS(Int)=    0.0000156089
 Iter   5:  RMS(Cart)=    0.0000013160 RMS(Int)=    0.0000092161
 Iter   6:  RMS(Cart)=    0.0000007770 RMS(Int)=    0.0000054416
 Iter   7:  RMS(Cart)=    0.0000004588 RMS(Int)=    0.0000032129
 Iter   8:  RMS(Cart)=    0.0000002709 RMS(Int)=    0.0000018971
 Iter   9:  RMS(Cart)=    0.0000001599 RMS(Int)=    0.0000011201
 Iter  10:  RMS(Cart)=    0.0000000944 RMS(Int)=    0.0000006614
 Iter  11:  RMS(Cart)=    0.0000000558 RMS(Int)=    0.0000003905
 Iter  12:  RMS(Cart)=    0.0000000329 RMS(Int)=    0.0000002306
 Iter  13:  RMS(Cart)=    0.0000000194 RMS(Int)=    0.0000001361
 Iter  14:  RMS(Cart)=    0.0000000115 RMS(Int)=    0.0000000804
CONVERGED
done
Storing new coordinates                 .... done

                                .--------------------.
          ----------------------|Geometry convergence|-------------------------
          Item                value                   Tolerance       Converged
          ---------------------------------------------------------------------
          RMS gradient        0.0055357585            0.0001000000      NO
          MAX gradient        0.0099060680            0.0003000000      NO
          RMS step            0.0198399866            0.0020000000      NO
          MAX step            0.0306529876            0.0040000000      NO
          ........................................................
          Max(Bonds)      0.0145      Max(Angles)    1.76
          Max(Dihed)        1.33      Max(Improp)    0.00
          ---------------------------------------------------------------------

The optimization has not yet converged - more geometry cycles are needed


    ---------------------------------------------------------------------------
                         Redundant Internal Coordinates
                            (Angstroem and degrees)

        Definition                    Value    dE/dq     Step     New-Value
    ----------------------------------------------------------------------------
     1. B(C   1,C   0)                1.5402 -0.009906  0.0145    1.5546   
     2. B(H   2,C   0)                1.0900  0.005283 -0.0077    1.0823   
     3. B(H   3,C   0)                1.0902  0.004855 -0.0071    1.0831   
     4. B(H   4,C   0)                1.0901  0.004026 -0.0059    1.0842   
     5. B(H   5,C   1)                1.0901  0.004761 -0.0069    1.0832   
     6. B(H   6,C   1)                1.0907  0.004499 -0.0066    1.0841   
     7. B(H   7,C   1)                1.0899  0.005242 -0.0076    1.0822   
     8. A(H   2,C   0,H   3)          110.86  0.008358   -1.76    109.10   
     9. A(H   3,C   0,H   4)          108.16  0.005975   -0.92    107.24   
    10. A(H   2,C   0,H   4)          109.37  0.007042   -1.27    108.09   
    11. A(C   1,C   0,H   3)          109.48 -0.007172    1.31    110.79   
    12. A(C   1,C   0,H   2)          110.14 -0.005761    1.00    111.14   
    13. A(C   1,C   0,H   4)          108.79 -0.008523    1.66    110.45   
    14. A(C   0,C   1,H   5)          109.42 -0.007297    1.35    110.77   
    15. A(C   0,C   1,H   6)          108.79 -0.008572    1.66    110.44   
    16. A(H   5,C   1,H   6)          108.11  0.005969   -0.90    107.21   
    17. A(C   0,C   1,H   7)          110.21 -0.005578    0.96    111.18   
    18. A(H   5,C   1,H   7)          110.78  0.008252   -1.72    109.06   
    19. A(H   6,C   1,H   7)          109.48  0.007146   -1.33    108.15   
    20. D(H   5,C   1,C   0,H   4)    118.00  0.000836    0.61    118.61   
    21. D(H   6,C   1,C   0,H   2)     -4.23 -0.001234    1.33     -2.90   
    22. D(H   6,C   1,C   0,H   3)    117.91  0.000753    0.65    118.56   
    23. D(H   6,C   1,C   0,H   4)   -124.09 -0.001111    1.26   -122.83   
    24. D(H   7,C   1,C   0,H   2)    115.81 -0.001185    1.31    117.13   
    25. D(H   7,C   1,C   0,H   3)   -122.05  0.000802    0.63   -121.41   
    26. D(H   7,C   1,C   0,H   4)     -4.05 -0.001062    1.24     -2.81   
    27. D(H   5,C   1,C   0,H   2)   -122.14  0.000713    0.68   -121.46   
    28. D(H   5,C   1,C   0,H   3)     -0.00  0.002700    0.00     -0.00 C 
    ----------------------------------------------------------------------------

         *************************************************************
         *                GEOMETRY OPTIMIZATION CYCLE   2            *
         *************************************************************
---------------------------------
CARTESIAN COORDINATES (ANGSTROEM)
---------------------------------
  C     -0.789616    0.103329   -0.274409
  C     -1.272797    1.555933   -0.003696
  H      0.172723   -0.079941    0.185586
  H     -1.505643   -0.616351    0.103067
  H     -0.691684   -0.070401   -1.340090
  H     -2.227706    1.553842    0.507616
  H     -0.568388    2.075900    0.635655
  H     -1.366890    2.114689   -0.925729

----------------------------
CARTESIAN COORDINATES (A.U.)
----------------------------
  NO LB      ZA    FRAG     MASS         X           Y           Z
   0 C     6.0000    0    12.011   -1.492158    0.195264   -0.518558
   1 C     6.0000    0    12.011   -2.405237    2.940287   -0.006984
   2 H     1.0000    0     1.008    0.326400   -0.151066    0.350708
   3 H     1.0000    0     1.008   -2.845252   -1.164734    0.194769
   4 H     1.0000    0     1.008   -1.307093   -0.133038   -2.532404
   5 H     1.0000    0     1.008   -4.209754    2.936335    0.959255
   6 H     1.0000    0     1.008   -1.074097    3.922882    1.201214
   7 H     1.0000    0     1.008   -2.583048    3.996183   -1.749375

--------------------------------
INTERNAL COORDINATES (ANGSTROEM)
--------------------------------
 C      0   0   0     0.000000000000     0.00000000     0.00000000
 C      1   0   0     1.554608180053     0.00000000     0.00000000
 H      1   2   0     1.082257408331   111.13598566     0.00000000
 H      1   2   3     1.083107535993   110.77524338   121.45567102
 H      1   2   3     1.084181472240   110.42407497   240.06725318
 H      2   1   3     1.083187890621   110.75628320   238.54432437
 H      2   1   3     1.084124794364   110.41995648   357.10692572
 H      2   1   3     1.082223683534   111.16708749   117.13169617

---------------------------
INTERNAL COORDINATES (A.U.)
---------------------------
 C      0   0   0     0.000000000000     0.00000000     0.00000000
 C      1   0   0     2.937783705853     0.00000000     0.00000000
 H      1   2   0     2.045170108152   111.13598566     0.00000000
 H      1   2   3     2.046776616613   110.77524338   121.45567102
 H      1   2   3     2.048806062006   110.42407497   240.06725318
 H      2   1   3     2.046928464853   110.75628320   238.54432437
 H      2   1   3     2.048698956342   110.41995648   357.10692572
 H      2   1   3     2.045106377522   111.16708749   117.13169617


Diagonalization of the overlap matrix:
Smallest eigenvalue                        ... 9.366e-03
Time for diagonalization                   ...    0.000 sec
Threshold for overlap eigenvalues          ... 1.000e-08
Number of eigenvalues below threshold      ... 0
Time for construction of square roots      ...    0.000 sec
Total time needed                          ...    0.001 sec

--------------
SCF ITERATIONS
--------------
ITER       Energy         Delta-E        Max-DP      RMS-DP      [F,P]     Damp
               ***  Starting incremental Fock matrix formation  ***
  0    -79.2228509532   0.000000000000 0.00159688  0.00013092  0.0081096 0.7000
                      *** Initiating the SOSCF procedure ***
                      *** Re-Reading the Fockian *** 
                      *** Removing any level shift *** 
ITER      Energy       Delta-E        Grad      Rot      Max-DP    RMS-DP
  1    -79.22292440  -0.0000734499  0.000846  0.000846  0.004214  0.000375
               *** Restarting incremental Fock matrix formation ***
  2    -79.22311921  -0.0001948073  0.001110  0.000647  0.000583  0.000091
  3    -79.22312735  -0.0000081427  0.000192  0.000372  0.000312  0.000047
  4    -79.22312815  -0.0000008015  0.000050  0.000038  0.000069  0.000008
  5    -79.22312818  -0.0000000282  0.000022  0.000013  0.000015  0.000002
  6    -79.22312819  -0.0000000025  0.000003  0.000003  0.000003  0.000000
                 **** Energy Check signals convergence ****
              ***Rediagonalizing the Fockian in SOSCF/NRSCF***

               *****************************************************
               *                     SUCCESS                       *
               *           SCF CONVERGED AFTER   7 CYCLES          *
               *****************************************************

Total Energy       :          -79.22312819 Eh           -2155.77092 eV
  Last Energy change         ...    1.0607e-10  Tolerance :   1.0000e-08
  Last MAX-Density change    ...    2.8084e-07  Tolerance :   1.0000e-07
             **** THE GBW FILE WAS UPDATED (dihedral.gbw) ****
             **** DENSITY FILE WAS UPDATED (dihedral.scfp) ****
             **** ENERGY FILE WAS UPDATED (dihedral.en.tmp) ****
             **** THE GBW FILE WAS UPDATED (dihedral.gbw) ****
             **** DENSITY FILE WAS UPDATED (dihedral.scfp) ****
Total SCF time: 0 days 0 hours 0 min 0 sec 

-------------------------   --------------------
FINAL SINGLE POINT ENERGY       -79.223128185262
-------------------------   --------------------

------------------------------------------------------------------------------
                         ORCA SCF GRADIENT CALCULATION
------------------------------------------------------------------------------

Gradient of the Hartree-Fock SCF energy:
Hartree-Fock type                ... RHF
Number of operators              ...    1
Number of atoms                  ...    8
Basis set dimensions             ...   40
Integral neglect threshold       ... 2.5e-11
Integral primitive cutoff        ... 2.5e-12

Nuclear repulsion gradient       ... done
One Electron Gradient            ... done
Pre-screening matrix             ... done
Starting the two electron gradient:
Two electron gradient done

------------------
CARTESIAN GRADIENT
------------------

   1   C   :    0.005755687   -0.010489443    0.002662541
   2   C   :   -0.005750500    0.010471146   -0.002645575
   3   H   :   -0.000275255    0.002531260   -0.000431697
   4   H   :   -0.001931769    0.002130191   -0.001489304
   5   H   :   -0.001496975    0.001810809   -0.000049986
   6   H   :    0.001604064   -0.002246718    0.001650947
   7   H   :    0.000507135   -0.002279691    0.000613000
   8   H   :    0.001587614   -0.001927555   -0.000309926

Difference to translation invariance:
           :    0.0000000000   -0.0000000000   -0.0000000000

Norm of the cartesian gradient     ...    0.0185780893
RMS gradient                       ...    0.0037922366
MAX gradient                       ...    0.0104894427

-------
TIMINGS
-------

Total SCF gradient time            ...        0.181 sec

One electron gradient       ....       0.004 sec  (  2.5%)
Prescreening matrices       ....       0.006 sec  (  3.0%)
Two electron gradient       ....       0.103 sec  ( 57.0%)
------------------------------------------------------------------------------
                         ORCA GEOMETRY RELAXATION STEP
------------------------------------------------------------------------------

Reading the OPT-File                    .... done
Getting information on internals        .... done
Copying old internal coords+grads       .... done
Making the new internal coordinates     .... (new redundants).... done
Validating the new internal coordinates .... (new redundants).... done
Calculating the B-matrix                .... done
Calculating the G,G- and P matrices     .... done
Transforming gradient to internals      .... done
Projecting the internal gradient        .... done
Number of atoms                         ....   8
Number of internal coordinates          ....  28
Current Energy                          ....   -79.223128185 Eh
Current gradient norm                   ....     0.018578089 Eh/bohr
Maximum allowed component of the step   ....  0.300
Current trust radius                    ....  0.300
Updating the Hessian (BFGS)             .... done
Forming the augmented Hessian           .... done
Diagonalizing the augmented Hessian     .... done
Last element of RFO vector              ....  0.997776001
Lowest eigenvalues of augmented Hessian:
 -0.000431093  0.035752625  0.107677261  0.109843494  0.111856820
Length of the computed step             ....  0.066804799
The final length of the internal step   ....  0.066804799
Converting the step to cartesian space:
 Initial RMS(Int)=    0.0126249203
Transforming coordinates:
 Iter   0:  RMS(Cart)=    0.0117094586 RMS(Int)=    0.0126722179
 Iter   1:  RMS(Cart)=    0.0001170710 RMS(Int)=    0.0001050864
 Iter   2:  RMS(Cart)=    0.0000014795 RMS(Int)=    0.0000013001
 Iter   3:  RMS(Cart)=    0.0000000234 RMS(Int)=    0.0000000247
Imposing constraints:
 Iter   0:  RMS(Cart)=    0.0000242251 RMS(Int)=    0.0001706473
 Iter   1:  RMS(Cart)=    0.0000142624 RMS(Int)=    0.0001004680
 Iter   2:  RMS(Cart)=    0.0000083970 RMS(Int)=    0.0000591501
 Iter   3:  RMS(Cart)=    0.0000049437 RMS(Int)=    0.0000348244
 Iter   4:  RMS(Cart)=    0.0000029106 RMS(Int)=    0.0000205027
 Iter   5:  RMS(Cart)=    0.0000017136 RMS(Int)=    0.0000120709
 Iter   6:  RMS(Cart)=    0.0000010089 RMS(Int)=    0.0000071067
 Iter   7:  RMS(Cart)=    0.0000005940 RMS(Int)=    0.0000041840
 Iter   8:  RMS(Cart)=    0.0000003497 RMS(Int)=    0.0000024633
 Iter   9:  RMS(Cart)=    0.0000002059 RMS(Int)=    0.0000014503
 Iter  10:  RMS(Cart)=    0.0000001212 RMS(Int)=    0.0000008538
 Iter  11:  RMS(Cart)=    0.0000000714 RMS(Int)=    0.0000005027
 Iter  12:  RMS(Cart)=    0.0000000420 RMS(Int)=    0.0000002960
 Iter  13:  RMS(Cart)=    0.0000000247 RMS(Int)=    0.0000001742
 Iter  14:  RMS(Cart)=    0.0000000146 RMS(Int)=    0.0000001026
 Iter  15:  RMS(Cart)=    0.0000000086 RMS(Int)=    0.0000000604
CONVERGED
done
Storing new coordinates                 .... done

                                .--------------------.
          ----------------------|Geometry convergence|-------------------------
          Item                value                   Tolerance       Converged
          ---------------------------------------------------------------------
          Energy change      -0.0016299242            0.0000050000      NO
          RMS gradient        0.0017030898            0.0001000000      NO
          MAX gradient        0.0042708486            0.0003000000      NO
          RMS step            0.0126249203            0.0020000000      NO
          MAX step            0.0229784270            0.0040000000      NO
          ........................................................
          Max(Bonds)      0.0062      Max(Angles)    1.10
          Max(Dihed)        1.32      Max(Improp)    0.00
          ---------------------------------------------------------------------

The optimization has not yet converged - more geometry cycles are needed


    ---------------------------------------------------------------------------
                         Redundant Internal Coordinates
                            (Angstroem and degrees)

        Definition                    Value    dE/dq     Step     New-Value
    ----------------------------------------------------------------------------
     1. B(C   1,C   0)                1.5546  0.004271 -0.0062    1.5485   
     2. B(H   2,C   0)                1.0823 -0.000857  0.0007    1.0830   
     3. B(H   3,C   0)                1.0831 -0.000657  0.0004    1.0835   
     4. B(H   4,C   0)                1.0842 -0.000376  0.0000    1.0842   
     5. B(H   5,C   1)                1.0832 -0.000630  0.0004    1.0836   
     6. B(H   6,C   1)                1.0841 -0.000402  0.0000    1.0841   
     7. B(H   7,C   1)                1.0822 -0.000869  0.0007    1.0830   
     8. A(H   2,C   0,H   3)          109.10  0.003164   -1.10    107.99   
     9. A(H   3,C   0,H   4)          107.21  0.001370   -0.22    106.98   
    10. A(H   2,C   0,H   4)          108.08  0.002186   -0.61    107.47   
    11. A(C   1,C   0,H   3)          110.78 -0.002190    0.64    111.41   
    12. A(C   1,C   0,H   2)          111.14 -0.001698    0.44    111.57   
    13. A(C   1,C   0,H   4)          110.42 -0.002559    0.85    111.28   
    14. A(C   0,C   1,H   5)          110.76 -0.002206    0.66    111.41   
    15. A(C   0,C   1,H   6)          110.42 -0.002589    0.85    111.27   
    16. A(H   5,C   1,H   6)          107.18  0.001352   -0.20    106.97   
    17. A(C   0,C   1,H   7)          111.17 -0.001632    0.41    111.58   
    18. A(H   5,C   1,H   7)          109.06  0.003106   -1.08    107.98   
    19. A(H   6,C   1,H   7)          108.14  0.002240   -0.65    107.48   
    20. D(H   5,C   1,C   0,H   4)    118.61  0.000552    0.62    119.23   
    21. D(H   6,C   1,C   0,H   2)     -2.89 -0.000856    1.32     -1.58   
    22. D(H   6,C   1,C   0,H   3)    118.56  0.000505    0.65    119.21   
    23. D(H   6,C   1,C   0,H   4)   -122.83 -0.000802    1.26   -121.56   
    24. D(H   7,C   1,C   0,H   2)    117.13 -0.000825    1.31    118.44   
    25. D(H   7,C   1,C   0,H   3)   -121.41  0.000536    0.64   -120.77   
    26. D(H   7,C   1,C   0,H   4)     -2.80 -0.000771    1.25     -1.55   
    27. D(H   5,C   1,C   0,H   2)   -121.46  0.000498    0.67   -120.79   
    28. D(H   5,C   1,C   0,H   3)     -0.00  0.001859   -0.00     -0.00 C 
    ----------------------------------------------------------------------------

         *************************************************************
         *                GEOMETRY OPTIMIZATION CYCLE   3            *
         *************************************************************
---------------------------------
CARTESIAN COORDINATES (ANGSTROEM)
---------------------------------
  C     -0.791827    0.106282   -0.276424
  C     -1.270581    1.552999   -0.001636
  H      0.165884   -0.091318    0.188942
  H     -1.501811   -0.622549    0.096082
  H     -0.680534   -0.075576   -1.339476
  H     -2.225063    1.562826    0.511199
  H     -0.567922    2.086351    0.628572
  H     -1.378147    2.117985   -0.919259

----------------------------
CARTESIAN COORDINATES (A.U.)
----------------------------
  NO LB      ZA    FRAG     MASS         X           Y           Z
   0 C     6.0000    0    12.011   -1.496336    0.200844   -0.522365
   1 C     6.0000    0    12.011   -2.401051    2.934742   -0.003092
   2 H     1.0000    0     1.008    0.313476   -0.172567    0.357049
   3 H     1.0000    0     1.008   -2.838011   -1.176446    0.181568
   4 H     1.0000    0     1.008   -1.286023   -0.142818   -2.531244
   5 H     1.0000    0     1.008   -4.204759    2.953313    0.966027
   6 H     1.0000    0     1.008   -1.073217    3.942632    1.187829
   7 H     1.0000    0     1.008   -2.604320    4.002412   -1.737147

--------------------------------
INTERNAL COORDINATES (ANGSTROEM)
--------------------------------
 C      0   0   0     0.000000000000     0.00000000     0.00000000
 C      1   0   0     1.548451607826     0.00000000     0.00000000
 H      1   2   0     1.082969268952   111.57009441     0.00000000
 H      1   2   3     1.083527037690   111.39844388   120.78286039
 H      1   2   3     1.084223224682   111.25027650   240.01358158
 H      2   1   3     1.083573335398   111.39587250   239.21713615
 H      2   1   3     1.084138917166   111.24794572   358.43091021
 H      2   1   3     1.082963993752   111.57822991   118.44599371

---------------------------
INTERNAL COORDINATES (A.U.)
---------------------------
 C      0   0   0     0.000000000000     0.00000000     0.00000000
 C      1   0   0     2.926149470421     0.00000000     0.00000000
 H      1   2   0     2.046515329772   111.57009441     0.00000000
 H      1   2   3     2.047569359934   111.39844388   120.78286039
 H      1   2   3     2.048884962686   111.25027650   240.01358158
 H      2   1   3     2.047656849922   111.39587250   239.21713615
 H      2   1   3     2.048725644570   111.24794572   358.43091021
 H      2   1   3     2.046505361089   111.57822991   118.44599371


Diagonalization of the overlap matrix:
Smallest eigenvalue                        ... 9.408e-03
Time for diagonalization                   ...    0.000 sec
Threshold for overlap eigenvalues          ... 1.000e-08
Number of eigenvalues below threshold      ... 0
Time for construction of square roots      ...    0.000 sec
Total time needed                          ...    0.001 sec

--------------
SCF ITERATIONS
--------------
ITER       Energy         Delta-E        Max-DP      RMS-DP      [F,P]     Damp
               ***  Starting incremental Fock matrix formation  ***
                      *** Initiating the SOSCF procedure ***
                      *** Re-Reading the Fockian *** 
                      *** Removing any level shift *** 
ITER      Energy       Delta-E        Grad      Rot      Max-DP    RMS-DP
  0    -79.22333858 -79.2233385785  0.002132  0.002132  0.001523  0.000201
               *** Restarting incremental Fock matrix formation ***
  1    -79.22340676  -0.0000681840  0.000862  0.000755  0.000664  0.000097
  2    -79.22341736  -0.0000105971  0.000250  0.000472  0.000417  0.000054
  3    -79.22341866  -0.0000012955  0.000030  0.000045  0.000052  0.000006
  4    -79.22341867  -0.0000000122  0.000010  0.000017  0.000019  0.000002
                  ***Gradient check signals convergence***
              ***Rediagonalizing the Fockian in SOSCF/NRSCF***

               *****************************************************
               *                     SUCCESS                       *
               *           SCF CONVERGED AFTER   5 CYCLES          *
               *****************************************************

Total Energy       :          -79.22341867 Eh           -2155.77882 eV
  Last Energy change         ...   -1.1510e-09  Tolerance :   1.0000e-08
  Last MAX-Density change    ...    3.2431e-06  Tolerance :   1.0000e-07
             **** THE GBW FILE WAS UPDATED (dihedral.gbw) ****
             **** DENSITY FILE WAS UPDATED (dihedral.scfp) ****
             **** ENERGY FILE WAS UPDATED (dihedral.en.tmp) ****
             **** THE GBW FILE WAS UPDATED (dihedral.gbw) ****
             **** DENSITY FILE WAS UPDATED (dihedral.scfp) ****
Total SCF time: 0 days 0 hours 0 min 0 sec 

-------------------------   --------------------
FINAL SINGLE POINT ENERGY       -79.223418668482
-------------------------   --------------------

------------------------------------------------------------------------------
                         ORCA SCF GRADIENT CALCULATION
------------------------------------------------------------------------------

Gradient of the Hartree-Fock SCF energy:
Hartree-Fock type                ... RHF
Number of operators              ...    1
Number of atoms                  ...    8
Basis set dimensions             ...   40
Integral neglect threshold       ... 2.5e-11
Integral primitive cutoff        ... 2.5e-12

Nuclear repulsion gradient       ... done
One Electron Gradient            ... done
Pre-screening matrix             ... done
Starting the two electron gradient:
Two electron gradient done

------------------
CARTESIAN GRADIENT
------------------

   1   C   :    0.002946295   -0.005134482    0.001489635
   2   C   :   -0.002920434    0.005139719   -0.001457058
   3   H   :   -0.000477269    0.000855795   -0.000613324
   4   H   :   -0.000451949    0.000842535   -0.001177357
   5   H   :   -0.000644232    0.000270511    0.000325794
   6   H   :    0.001164620   -0.000513950    0.000799263
   7   H   :   -0.000357732   -0.000727792    0.000177304
   8   H   :    0.000740701   -0.000732336    0.000455743

Difference to translation invariance:
           :   -0.0000000000   -0.0000000000   -0.0000000000

Norm of the cartesian gradient     ...    0.0090996301
RMS gradient                       ...    0.0018574542
MAX gradient                       ...    0.0051397188

-------
TIMINGS
-------

Total SCF gradient time            ...        0.180 sec

One electron gradient       ....       0.004 sec  (  2.5%)
Prescreening matrices       ....       0.005 sec  (  3.0%)
Two electron gradient       ....       0.103 sec  ( 57.0%)
------------------------------------------------------------------------------
                         ORCA GEOMETRY RELAXATION STEP
------------------------------------------------------------------------------

Reading the OPT-File                    .... done
Getting information on internals        .... done
Copying old internal coords+grads       .... done
Making the new internal coordinates     .... (new redundants).... done
Validating the new internal coordinates .... (new redundants).... done
Calculating the B-matrix                .... done
Calculating the G,G- and P matrices     .... done
Transforming gradient to internals      .... done
Projecting the internal gradient        .... done
Number of atoms                         ....   8
Number of internal coordinates          ....  28
Current Energy                          ....   -79.223418668 Eh
Current gradient norm                   ....     0.009099630 Eh/bohr
Maximum allowed component of the step   ....  0.300
Current trust radius                    ....  0.300
Updating the Hessian (BFGS)             .... done
Forming the augmented Hessian           .... done
Diagonalizing the augmented Hessian     .... done
Last element of RFO vector              ....  0.998846151
Lowest eigenvalues of augmented Hessian:
 -0.000118768  0.028652700  0.107670775  0.109838173  0.111847067
Length of the computed step             ....  0.048080118
The final length of the internal step   ....  0.048080118
Converting the step to cartesian space:
 Initial RMS(Int)=    0.0090862882
Transforming coordinates:
 Iter   0:  RMS(Cart)=    0.0068637932 RMS(Int)=    0.0090967434
 Iter   1:  RMS(Cart)=    0.0000412656 RMS(Int)=    0.0000385098
 Iter   2:  RMS(Cart)=    0.0000004250 RMS(Int)=    0.0000004285
 Iter   3:  RMS(Cart)=    0.0000000038 RMS(Int)=    0.0000000042
Imposing constraints:
 Iter   0:  RMS(Cart)=    0.0000080982 RMS(Int)=    0.0000570295
 Iter   1:  RMS(Cart)=    0.0000047571 RMS(Int)=    0.0000335006
 Iter   2:  RMS(Cart)=    0.0000027944 RMS(Int)=    0.0000196791
 Iter   3:  RMS(Cart)=    0.0000016415 RMS(Int)=    0.0000115600
 Iter   4:  RMS(Cart)=    0.0000009643 RMS(Int)=    0.0000067907
 Iter   5:  RMS(Cart)=    0.0000005664 RMS(Int)=    0.0000039890
 Iter   6:  RMS(Cart)=    0.0000003327 RMS(Int)=    0.0000023433
 Iter   7:  RMS(Cart)=    0.0000001955 RMS(Int)=    0.0000013765
 Iter   8:  RMS(Cart)=    0.0000001148 RMS(Int)=    0.0000008086
 Iter   9:  RMS(Cart)=    0.0000000674 RMS(Int)=    0.0000004750
 Iter  10:  RMS(Cart)=    0.0000000396 RMS(Int)=    0.0000002790
 Iter  11:  RMS(Cart)=    0.0000000233 RMS(Int)=    0.0000001639
 Iter  12:  RMS(Cart)=    0.0000000137 RMS(Int)=    0.0000000963
CONVERGED
done
Storing new coordinates                 .... done

                                .--------------------.
          ----------------------|Geometry convergence|-------------------------
          Item                value                   Tolerance       Converged
          ---------------------------------------------------------------------
          Energy change      -0.0002904832            0.0000050000      NO
          RMS gradient        0.0007937525            0.0001000000      NO
          MAX gradient        0.0033777225            0.0003000000      NO
          RMS step            0.0090862882            0.0020000000      NO
          MAX step            0.0182176734            0.0040000000      NO
          ........................................................
          Max(Bonds)      0.0072      Max(Angles)    0.67
          Max(Dihed)        1.04      Max(Improp)    0.00
          ---------------------------------------------------------------------

The optimization has not yet converged - more geometry cycles are needed


    ---------------------------------------------------------------------------
                         Redundant Internal Coordinates
                            (Angstroem and degrees)

        Definition                    Value    dE/dq     Step     New-Value
    ----------------------------------------------------------------------------
     1. B(C   1,C   0)                1.5485  0.003378 -0.0072    1.5413   
     2. B(H   2,C   0)                1.0830 -0.000842  0.0014    1.0844   
     3. B(H   3,C   0)                1.0835 -0.000675  0.0010    1.0846   
     4. B(H   4,C   0)                1.0842 -0.000431  0.0005    1.0847   
     5. B(H   5,C   1)                1.0836 -0.000652  0.0010    1.0846   
     6. B(H   6,C   1)                1.0841 -0.000487  0.0006    1.0847   
     7. B(H   7,C   1)                1.0830 -0.000842  0.0014    1.0844   
     8. A(H   2,C   0,H   3)          108.00  0.001030   -0.67    107.33   
     9. A(H   3,C   0,H   4)          106.95 -0.000027    0.03    106.98   
    10. A(H   2,C   0,H   4)          107.45  0.000471   -0.29    107.16   
    11. A(C   1,C   0,H   3)          111.40 -0.000493    0.29    111.69   
    12. A(C   1,C   0,H   2)          111.57 -0.000355    0.17    111.74   
    13. A(C   1,C   0,H   4)          111.25 -0.000539    0.41    111.66   
    14. A(C   0,C   1,H   5)          111.40 -0.000484    0.30    111.70   
    15. A(C   0,C   1,H   6)          111.25 -0.000552    0.41    111.66   
    16. A(H   5,C   1,H   6)          106.94 -0.000038    0.04    106.98   
    17. A(C   0,C   1,H   7)          111.58 -0.000342    0.16    111.74   
    18. A(H   5,C   1,H   7)          107.99  0.001011   -0.66    107.33   
    19. A(H   6,C   1,H   7)          107.47  0.000491   -0.31    107.16   
    20. D(H   5,C   1,C   0,H   4)    119.23  0.000290    0.50    119.73   
    21. D(H   6,C   1,C   0,H   2)     -1.57 -0.000457    1.04     -0.53   
    22. D(H   6,C   1,C   0,H   3)    119.21  0.000273    0.52    119.73   
    23. D(H   6,C   1,C   0,H   4)   -121.56 -0.000448    1.02   -120.54   
    24. D(H   7,C   1,C   0,H   2)    118.45 -0.000440    1.04    119.48   
    25. D(H   7,C   1,C   0,H   3)   -120.77  0.000290    0.51   -120.26   
    26. D(H   7,C   1,C   0,H   4)     -1.54 -0.000431    1.01     -0.53   
    27. D(H   5,C   1,C   0,H   2)   -120.78  0.000281    0.53   -120.26   
    28. D(H   5,C   1,C   0,H   3)     -0.00  0.001011    0.00     -0.00 C 
    ----------------------------------------------------------------------------

         *************************************************************
         *                GEOMETRY OPTIMIZATION CYCLE   4            *
         *************************************************************
---------------------------------
CARTESIAN COORDINATES (ANGSTROEM)
---------------------------------
  C     -0.793843    0.109675   -0.277599
  C     -1.268555    1.549620   -0.000454
  H      0.160885   -0.096267    0.193464
  H     -1.501698   -0.623964    0.092494
  H     -0.673070   -0.074573   -1.339743
  H     -2.223318    1.564982    0.513790
  H     -0.564432    2.090254    0.622911
  H     -1.385969    2.117273   -0.916863

----------------------------
CARTESIAN COORDINATES (A.U.)
----------------------------
  NO LB      ZA    FRAG     MASS         X           Y           Z
   0 C     6.0000    0    12.011   -1.500146    0.207256   -0.524587
   1 C     6.0000    0    12.011   -2.397221    2.928358   -0.000857
   2 H     1.0000    0     1.008    0.304028   -0.181919    0.365595
   3 H     1.0000    0     1.008   -2.837798   -1.179121    0.174788
   4 H     1.0000    0     1.008   -1.271918   -0.140923   -2.531747
   5 H     1.0000    0     1.008   -4.201462    2.957388    0.970922
   6 H     1.0000    0     1.008   -1.066623    3.950007    1.177130
   7 H     1.0000    0     1.008   -2.619101    4.001066   -1.732620

--------------------------------
INTERNAL COORDINATES (ANGSTROEM)
--------------------------------
 C      0   0   0     0.000000000000     0.00000000     0.00000000
 C      1   0   0     1.541299226578     0.00000000     0.00000000
 H      1   2   0     1.084351349624   111.74619756     0.00000000
 H      1   2   3     1.084552302315   111.68994314   120.25560492
 H      1   2   3     1.084749851370   111.65648366   239.98679818
 H      2   1   3     1.084553183889   111.69267715   239.74438956
 H      2   1   3     1.084737459848   111.65604381   359.47702419
 H      2   1   3     1.084353163688   111.74372950   119.48529934

---------------------------
INTERNAL COORDINATES (A.U.)
---------------------------
 C      0   0   0     0.000000000000     0.00000000     0.00000000
 C      1   0   0     2.912633428656     0.00000000     0.00000000
 H      1   2   0     2.049127083738   111.74619756     0.00000000
 H      1   2   3     2.049506829289   111.68994314   120.25560492
 H      1   2   3     2.049880142901   111.65648366   239.98679818
 H      2   1   3     2.049508495223   111.69267715   239.74438956
 H      2   1   3     2.049856726318   111.65604381   359.47702419
 H      2   1   3     2.049130511822   111.74372950   119.48529934


Diagonalization of the overlap matrix:
Smallest eigenvalue                        ... 9.354e-03
Time for diagonalization                   ...    0.000 sec
Threshold for overlap eigenvalues          ... 1.000e-08
Number of eigenvalues below threshold      ... 0
Time for construction of square roots      ...    0.000 sec
Total time needed                          ...    0.001 sec

--------------
SCF ITERATIONS
--------------
ITER       Energy         Delta-E        Max-DP      RMS-DP      [F,P]     Damp
               ***  Starting incremental Fock matrix formation  ***
                      *** Initiating the SOSCF procedure ***
                      *** Re-Reading the Fockian *** 
                      *** Removing any level shift *** 
ITER      Energy       Delta-E        Grad      Rot      Max-DP    RMS-DP
  0    -79.22343965 -79.2234396506  0.001314  0.001314  0.001222  0.000156
               *** Restarting incremental Fock matrix formation ***
  1    -79.22347580  -0.0000361452  0.000619  0.000634  0.000532  0.000077
  2    -79.22348218  -0.0000063880  0.000205  0.000399  0.000347  0.000044
  3    -79.22348299  -0.0000008049  0.000023  0.000036  0.000039  0.000005
  4    -79.22348300  -0.0000000066  0.000006  0.000013  0.000013  0.000002
                  ***Gradient check signals convergence***
              ***Rediagonalizing the Fockian in SOSCF/NRSCF***

               *****************************************************
               *                     SUCCESS                       *
               *           SCF CONVERGED AFTER   5 CYCLES          *
               *****************************************************

Total Energy       :          -79.22348300 Eh           -2155.78057 eV
  Last Energy change         ...   -6.0896e-10  Tolerance :   1.0000e-08
  Last MAX-Density change    ...    1.7446e-06  Tolerance :   1.0000e-07
             **** THE GBW FILE WAS UPDATED (dihedral.gbw) ****
             **** DENSITY FILE WAS UPDATED (dihedral.scfp) ****
             **** ENERGY FILE WAS UPDATED (dihedral.en.tmp) ****
             **** THE GBW FILE WAS UPDATED (dihedral.gbw) ****
             **** DENSITY FILE WAS UPDATED (dihedral.scfp) ****
Total SCF time: 0 days 0 hours 0 min 0 sec 

-------------------------   --------------------
FINAL SINGLE POINT ENERGY       -79.223482995901
-------------------------   --------------------

------------------------------------------------------------------------------
                         ORCA SCF GRADIENT CALCULATION
------------------------------------------------------------------------------

Gradient of the Hartree-Fock SCF energy:
Hartree-Fock type                ... RHF
Number of operators              ...    1
Number of atoms                  ...    8
Basis set dimensions             ...   40
Integral neglect threshold       ... 2.5e-11
Integral primitive cutoff        ... 2.5e-12

Nuclear repulsion gradient       ... done
One Electron Gradient            ... done
Pre-screening matrix             ... done
Starting the two electron gradient:
Two electron gradient done

------------------
CARTESIAN GRADIENT
------------------

   1   C   :    0.000476245   -0.000109698    0.000740525
   2   C   :   -0.000438241    0.000127877   -0.000754715
   3   H   :   -0.000071525    0.000000237   -0.000251386
   4   H   :   -0.000052255   -0.000016533   -0.000468270
   5   H   :   -0.000136881   -0.000237468    0.000076944
   6   H   :    0.000310023    0.000131258    0.000334923
   7   H   :   -0.000250320    0.000068973    0.000118148
   8   H   :    0.000162954    0.000035355    0.000203831

Difference to translation invariance:
           :   -0.0000000000   -0.0000000000    0.0000000000

Norm of the cartesian gradient     ...    0.0015208900
RMS gradient                       ...    0.0003104504
MAX gradient                       ...    0.0007547148

-------
TIMINGS
-------

Total SCF gradient time            ...        0.180 sec

One electron gradient       ....       0.005 sec  (  2.5%)
Prescreening matrices       ....       0.005 sec  (  3.0%)
Two electron gradient       ....       0.103 sec  ( 56.9%)
------------------------------------------------------------------------------
                         ORCA GEOMETRY RELAXATION STEP
------------------------------------------------------------------------------

Reading the OPT-File                    .... done
Getting information on internals        .... done
Copying old internal coords+grads       .... done
Making the new internal coordinates     .... (new redundants).... done
Validating the new internal coordinates .... (new redundants).... done
Calculating the B-matrix                .... done
Calculating the G,G- and P matrices     .... done
Transforming gradient to internals      .... done
Projecting the internal gradient        .... done
Number of atoms                         ....   8
Number of internal coordinates          ....  28
Current Energy                          ....   -79.223482996 Eh
Current gradient norm                   ....     0.001520890 Eh/bohr
Maximum allowed component of the step   ....  0.300
Current trust radius                    ....  0.300
Updating the Hessian (BFGS)             .... done
Forming the augmented Hessian           .... done
Diagonalizing the augmented Hessian     .... done
Last element of RFO vector              ....  0.999949911
Lowest eigenvalues of augmented Hessian:
 -0.000003943  0.024814352  0.107676832  0.109820757  0.111854868
Length of the computed step             ....  0.010009315
The final length of the internal step   ....  0.010009315
Converting the step to cartesian space:
 Initial RMS(Int)=    0.0018915828
Transforming coordinates:
 Iter   0:  RMS(Cart)=    0.0015721317 RMS(Int)=    0.0018912641
 Iter   1:  RMS(Cart)=    0.0000015797 RMS(Int)=    0.0000015015
 Iter   2:  RMS(Cart)=    0.0000000033 RMS(Int)=    0.0000000040
Imposing constraints:
 Iter   0:  RMS(Cart)=    0.0000017289 RMS(Int)=    0.0000121834
 Iter   1:  RMS(Cart)=    0.0000010157 RMS(Int)=    0.0000071579
 Iter   2:  RMS(Cart)=    0.0000005968 RMS(Int)=    0.0000042054
 Iter   3:  RMS(Cart)=    0.0000003506 RMS(Int)=    0.0000024707
 Iter   4:  RMS(Cart)=    0.0000002060 RMS(Int)=    0.0000014516
 Iter   5:  RMS(Cart)=    0.0000001210 RMS(Int)=    0.0000008528
 Iter   6:  RMS(Cart)=    0.0000000711 RMS(Int)=    0.0000005011
 Iter   7:  RMS(Cart)=    0.0000000418 RMS(Int)=    0.0000002944
 Iter   8:  RMS(Cart)=    0.0000000245 RMS(Int)=    0.0000001730
 Iter   9:  RMS(Cart)=    0.0000000144 RMS(Int)=    0.0000001016
 Iter  10:  RMS(Cart)=    0.0000000085 RMS(Int)=    0.0000000597
CONVERGED
done
Storing new coordinates                 .... done

                                .--------------------.
          ----------------------|Geometry convergence|-------------------------
          Item                value                   Tolerance       Converged
          ---------------------------------------------------------------------
          Energy change      -0.0000643274            0.0000050000      NO
          RMS gradient        0.0001452944            0.0001000000      NO
          MAX gradient        0.0003883724            0.0003000000      NO
          RMS step            0.0018915828            0.0020000000      YES
          MAX step            0.0042336104            0.0040000000      NO
          ........................................................
          Max(Bonds)      0.0008      Max(Angles)    0.10
          Max(Dihed)        0.24      Max(Improp)    0.00
          ---------------------------------------------------------------------

The optimization has not yet converged - more geometry cycles are needed


    ---------------------------------------------------------------------------
                         Redundant Internal Coordinates
                            (Angstroem and degrees)

        Definition                    Value    dE/dq     Step     New-Value
    ----------------------------------------------------------------------------
     1. B(C   1,C   0)                1.5413  0.000388 -0.0008    1.5405   
     2. B(H   2,C   0)                1.0844 -0.000172  0.0003    1.0846   
     3. B(H   3,C   0)                1.0846 -0.000115  0.0002    1.0847   
     4. B(H   4,C   0)                1.0847 -0.000050  0.0001    1.0848   
     5. B(H   5,C   1)                1.0846 -0.000112  0.0002    1.0847   
     6. B(H   6,C   1)                1.0847 -0.000060  0.0001    1.0848   
     7. B(H   7,C   1)                1.0844 -0.000171  0.0003    1.0846   
     8. A(H   2,C   0,H   3)          107.33  0.000045   -0.08    107.26   
     9. A(H   3,C   0,H   4)          106.97 -0.000340    0.10    107.07   
    10. A(H   2,C   0,H   4)          107.16 -0.000143    0.01    107.17   
    11. A(C   1,C   0,H   3)          111.69  0.000120   -0.01    111.68   
    12. A(C   1,C   0,H   2)          111.75  0.000139   -0.03    111.72   
    13. A(C   1,C   0,H   4)          111.66  0.000147    0.01    111.66   
    14. A(C   0,C   1,H   5)          111.69  0.000127   -0.01    111.68   
    15. A(C   0,C   1,H   6)          111.66  0.000147    0.01    111.66   
    16. A(H   5,C   1,H   6)          106.97 -0.000342    0.10    107.07   
    17. A(C   0,C   1,H   7)          111.74  0.000132   -0.03    111.72   
[...]

---------------------------
INTERNAL COORDINATES (A.U.)
---------------------------
 C      0   0   0     0.000000000000     0.00000000     0.00000000
 C      1   0   0     2.911987750267     0.00000000     0.00000000
 H      1   2   0     2.049772226591   111.65585303     0.00000000
 H      1   2   3     2.049762091644   111.65391626   119.99652513
 H      1   2   3     2.049735628017   111.65706580   239.99929839
 H      2   1   3     2.049762091656   111.65391625   240.00346959
 H      2   1   3     2.049735628003   111.65706580     0.00000000
 H      2   1   3     2.049772226568   111.65585303   120.00694447

---------------------
BASIS SET INFORMATION
---------------------
There are 2 groups of distinct atoms

 Group   1 Type C   : 10s4p1d contracted to 3s2p1d pattern {631/31/1}
 Group   2 Type H   : 4s contracted to 2s pattern {31}

Atom   0C    basis set group =>   1
Atom   1C    basis set group =>   1
Atom   2H    basis set group =>   2
Atom   3H    basis set group =>   2
Atom   4H    basis set group =>   2
Atom   5H    basis set group =>   2
Atom   6H    basis set group =>   2
Atom   7H    basis set group =>   2
------------------------------------------------------------------------------
                           ORCA GTO INTEGRAL CALCULATION
------------------------------------------------------------------------------

                         BASIS SET STATISTICS AND STARTUP INFO

 # of primitive gaussian shells          ...   54
 # of primitive gaussian functions       ...   78
 # of contracted shells                  ...   24
 # of contracted basis functions         ...   40
 Highest angular momentum                ...    2
 Maximum contraction depth               ...    6
 Integral package used                   ... LIBINT
 Integral threshhold            Thresh   ...  2.500e-11
 Primitive cut-off              TCut     ...  2.500e-12


------------------------------ INTEGRAL EVALUATION ----------------------------


 * One electron integrals 
 Pre-screening matrix                    ... done
 Shell pair data                         ... done (   0.000 sec)

-------------------------------------------------------------------------------
                                 ORCA SCF
-------------------------------------------------------------------------------

------------
SCF SETTINGS
------------
Hamiltonian:
 Ab initio Hamiltonian  Method          .... Hartree-Fock(GTOs)


General Settings:
 Integral files         IntName         .... dihedral
 Hartree-Fock type      HFTyp           .... RHF
 Total Charge           Charge          ....    0
 Multiplicity           Mult            ....    1
 Number of Electrons    NEL             ....   18
 Basis Dimension        Dim             ....   40
 Nuclear Repulsion      ENuc            ....     42.2182567655 Eh

Convergence Acceleration:
 DIIS                   CNVDIIS         .... on
   Start iteration      DIISMaxIt       ....    12
   Startup error        DIISStart       ....  0.200000
   # of expansion vecs  DIISMaxEq       ....     5
   Bias factor          DIISBfac        ....   1.050
   Max. coefficient     DIISMaxC        ....  10.000
 Newton-Raphson         CNVNR           .... off
 SOSCF                  CNVSOSCF        .... on
   Start iteration      SOSCFMaxIt      ....   150
   Startup grad/error   SOSCFStart      ....  0.003300
 Level Shifting         CNVShift        .... on
   Level shift para.    LevelShift      ....    0.2500
   Turn off err/grad.   ShiftErr        ....    0.0010
 Zerner damping         CNVZerner       .... off
 Static damping         CNVDamp         .... on
   Fraction old density DampFac         ....    0.7000
   Max. Damping (<1)    DampMax         ....    0.9800
   Min. Damping (>=0)   DampMin         ....    0.0000
   Turn off err/grad.   DampErr         ....    0.1000
 Fernandez-Rico         CNVRico         .... off

SCF Procedure:
 Maximum # iterations   MaxIter         ....   300
 SCF integral mode      SCFMode         .... Direct
   Integral package                     .... LIBINT
 Reset frequency        DirectResetFreq ....    20
 Integral Threshold     Thresh          ....  2.500e-11 Eh
 Primitive CutOff       TCut            ....  2.500e-12 Eh

Convergence Tolerance:
 Convergence Check Mode ConvCheckMode   .... Total+1el-Energy
 Convergence forced     ConvForced      .... 0
 Energy Change          TolE            ....  1.000e-08 Eh
 1-El. energy change                    ....  1.000e-05 Eh
 Orbital Gradient       TolG            ....  1.000e-05
 Orbital Rotation angle TolX            ....  1.000e-05
 DIIS Error             TolErr          ....  5.000e-07


Diagonalization of the overlap matrix:
Smallest eigenvalue                        ... 9.339e-03
Time for diagonalization                   ...    0.000 sec
Threshold for overlap eigenvalues          ... 1.000e-08
Number of eigenvalues below threshold      ... 0
Time for construction of square roots      ...    0.000 sec
Total time needed                          ...    0.001 sec

---------------------
INITIAL GUESS: MOREAD
---------------------
Guess MOs are being read from file: dihedral.gbw
Input Geometry matches current geometry (good)
Input basis set matches current basis set (good)
MOs were renormalized
MOs were reorthogonalized (Cholesky)
                      ------------------
                      INITIAL GUESS DONE (   0.0 sec)
                      ------------------
--------------
SCF ITERATIONS
--------------
ITER       Energy         Delta-E        Max-DP      RMS-DP      [F,P]     Damp
               ***  Starting incremental Fock matrix formation  ***
                      *** Initiating the SOSCF procedure ***
                      *** Re-Reading the Fockian *** 
                      *** Removing any level shift *** 
ITER      Energy       Delta-E        Grad      Rot      Max-DP    RMS-DP
  0    -79.22348693 -79.2234869295  0.000033  0.000033  0.000033  0.000003
               *** Restarting incremental Fock matrix formation ***
  1    -79.22348695  -0.0000000224  0.000012  0.000014  0.000014  0.000002
                 **** Energy Check signals convergence ****
              ***Rediagonalizing the Fockian in SOSCF/NRSCF***

               *****************************************************
               *                     SUCCESS                       *
               *           SCF CONVERGED AFTER   2 CYCLES          *
               *****************************************************


----------------
TOTAL SCF ENERGY
----------------

Total Energy       :          -79.22348696 Eh           -2155.78068 eV

Components:
Nuclear Repulsion  :           42.21825677 Eh            1148.81717 eV
Electronic Energy  :         -121.44174372 Eh           -3304.59785 eV
One Electron Energy:         -188.99465795 Eh           -5142.80610 eV
Two Electron Energy:           67.55291423 Eh            1838.20825 eV

Virial components:
Potential Energy   :         -158.54521777 Eh           -4314.23471 eV
Kinetic Energy     :           79.32173082 Eh            2158.45403 eV
Virial Ratio       :            1.99876145


---------------
SCF CONVERGENCE
---------------

  Last Energy change         ...   -4.0445e-09  Tolerance :   1.0000e-08
  Last MAX-Density change    ...    1.0181e-05  Tolerance :   1.0000e-07
  Last RMS-Density change    ...    1.2314e-06  Tolerance :   5.0000e-09
  Last Orbital Gradient      ...    4.4382e-06  Tolerance :   1.0000e-05
  Last Orbital Rotation      ...    8.8988e-06  Tolerance :   1.0000e-05

             **** THE GBW FILE WAS UPDATED (dihedral.gbw) ****
             **** DENSITY FILE WAS UPDATED (dihedral.scfp) ****
             **** ENERGY FILE WAS UPDATED (dihedral.en.tmp) ****
             **** THE GBW FILE WAS UPDATED (dihedral.gbw) ****
             **** DENSITY FILE WAS UPDATED (dihedral.scfp) ****
----------------
ORBITAL ENERGIES
----------------

  NO   OCC          E(Eh)            E(eV) 
   0   2.0000     -11.205980      -304.9302 
   1   2.0000     -11.205447      -304.9157 
   2   2.0000      -1.014508       -27.6062 
   3   2.0000      -0.845900       -23.0181 
   4   2.0000      -0.595970       -16.2172 
   5   2.0000      -0.595968       -16.2171 
   6   2.0000      -0.508128       -13.8269 
   7   2.0000      -0.486257       -13.2317 
   8   2.0000      -0.486256       -13.2317 
   9   0.0000       0.244051         6.6410 
  10   0.0000       0.284287         7.7359 
  11   0.0000       0.284289         7.7359 
  12   0.0000       0.301120         8.1939 
  13   0.0000       0.395532        10.7630 
  14   0.0000       0.395534        10.7630 
  15   0.0000       0.413939        11.2639 
  16   0.0000       0.714251        19.4358 
  17   0.0000       0.730317        19.8729 
  18   0.0000       0.730324        19.8731 
  19   0.0000       0.894654        24.3448 
  20   0.0000       0.894667        24.3451 
  21   0.0000       0.939270        25.5588 
  22   0.0000       1.133660        30.8485 
  23   0.0000       1.133662        30.8485 
  24   0.0000       1.207053        32.8456 
  25   0.0000       1.207054        32.8456 
  26   0.0000       1.222955        33.2783 
  27   0.0000       1.269810        34.5533 
  28   0.0000       1.270606        34.5750 
  29   0.0000       1.724449        46.9246 
  30   0.0000       1.763351        47.9832 
  31   0.0000       1.763361        47.9835 
  32   0.0000       2.239895        60.9506 
  33   0.0000       2.374863        64.6233 
  34   0.0000       2.374885        64.6239 
  35   0.0000       2.472532        67.2810 
  36   0.0000       2.472540        67.2812 
  37   0.0000       2.776523        75.5530 
  38   0.0000       2.776546        75.5537 
  39   0.0000       2.934619        79.8550 

                    ********************************
                    * MULLIKEN POPULATION ANALYSIS *
                    ********************************

-----------------------
MULLIKEN ATOMIC CHARGES
-----------------------
   0 C :   -0.502059
   1 C :   -0.502059
   2 H :    0.167349
   3 H :    0.167352
   4 H :    0.167359
   5 H :    0.167352
   6 H :    0.167359
   7 H :    0.167349
Sum of atomic charges:    0.0000000

--------------------------------
MULLIKEN REDUCED ORBITAL CHARGES
--------------------------------
  0 C s       :     3.318515  s :     3.318515
      pz      :     1.086218  p :     3.136303
      px      :     1.076706
      py      :     0.973379
      dz2     :     0.005931  d :     0.047241
      dxz     :     0.010661
      dyz     :     0.012159
      dx2y2   :     0.010753
      dxy     :     0.007738
  1 C s       :     3.318515  s :     3.318515
      pz      :     1.086217  p :     3.136303
      px      :     1.076709
      py      :     0.973377
      dz2     :     0.013130  d :     0.047241
      dxz     :     0.007304
      dyz     :     0.005916
      dx2y2   :     0.009492
      dxy     :     0.011400
  2 H s       :     0.832651  s :     0.832651
  3 H s       :     0.832648  s :     0.832648
  4 H s       :     0.832641  s :     0.832641
  5 H s       :     0.832648  s :     0.832648
  6 H s       :     0.832641  s :     0.832641
  7 H s       :     0.832651  s :     0.832651


                     *******************************
                     * LOEWDIN POPULATION ANALYSIS *
                     *******************************

----------------------
LOEWDIN ATOMIC CHARGES
----------------------
   0 C :   -0.371710
   1 C :   -0.371710
   2 H :    0.123901
   3 H :    0.123903
   4 H :    0.123906
   5 H :    0.123903
   6 H :    0.123906
   7 H :    0.123901

-------------------------------
LOEWDIN REDUCED ORBITAL CHARGES
-------------------------------
  0 C s       :     2.970721  s :     2.970721
      pz      :     1.129943  p :     3.323641
      px      :     1.124798
      py      :     1.068900
      dz2     :     0.009228  d :     0.077348
      dxz     :     0.015819
      dyz     :     0.020290
      dx2y2   :     0.018300
      dxy     :     0.013712
  1 C s       :     2.970721  s :     2.970721
      pz      :     1.129943  p :     3.323641
      px      :     1.124799
      py      :     1.068899
      dz2     :     0.020232  d :     0.077348
      dxz     :     0.010688
      dyz     :     0.010747
      dx2y2   :     0.016372
      dxy     :     0.019309
  2 H s       :     0.876099  s :     0.876099
  3 H s       :     0.876097  s :     0.876097
  4 H s       :     0.876094  s :     0.876094
  5 H s       :     0.876097  s :     0.876097
  6 H s       :     0.876094  s :     0.876094
  7 H s       :     0.876099  s :     0.876099


                      *****************************
                      * MAYER POPULATION ANALYSIS *
                      *****************************

  NA   - Mulliken gross atomic population
  ZA   - Total nuclear charge
  QA   - Mulliken gross atomic charge
  VA   - Mayer's total valence
  BVA  - Mayer's bonded valence
  FA   - Mayer's free valence

  ATOM       NA         ZA         QA         VA         BVA        FA
  0 C      6.5021     6.0000    -0.5021     3.7958     3.7958     0.0000
  1 C      6.5021     6.0000    -0.5021     3.7958     3.7958     0.0000
  2 H      0.8327     1.0000     0.1673     0.9277     0.9277    -0.0000
  3 H      0.8326     1.0000     0.1674     0.9277     0.9277     0.0000
  4 H      0.8326     1.0000     0.1674     0.9277     0.9277     0.0000
  5 H      0.8326     1.0000     0.1674     0.9277     0.9277     0.0000
  6 H      0.8326     1.0000     0.1674     0.9277     0.9277     0.0000
  7 H      0.8327     1.0000     0.1673     0.9277     0.9277     0.0000

  Mayer bond orders larger than 0.100000
B(  0-C ,  1-C ) :   0.9498 B(  0-C ,  2-H ) :   0.9626 B(  0-C ,  3-H ) :   0.9626 
B(  0-C ,  4-H ) :   0.9626 B(  1-C ,  5-H ) :   0.9626 B(  1-C ,  6-H ) :   0.9626 
B(  1-C ,  7-H ) :   0.9626 

-------
TIMINGS
-------

Total SCF time: 0 days 0 hours 0 min 0 sec 

Total time                  ....       0.509 sec
Sum of individual times     ....       0.316 sec  ( 62.0%)

Fock matrix formation       ....       0.313 sec  ( 61.5%)
Diagonalization             ....       0.000 sec  (  0.0%)
Density matrix formation    ....       0.000 sec  (  0.0%)
Population analysis         ....       0.001 sec  (  0.2%)
Initial guess               ....       0.001 sec  (  0.2%)
Orbital Transformation      ....       0.000 sec  (  0.0%)
Orbital Orthonormalization  ....       0.000 sec  (  0.0%)
DIIS solution               ....       0.000 sec  (  0.0%)
SOSCF solution              ....       0.001 sec  (  0.1%)

-------------------------   --------------------
FINAL SINGLE POINT ENERGY       -79.223486955965
-------------------------   --------------------

                                *** OPTIMIZATION RUN DONE ***

Storing optimized geometry in dihedral.042.xyz ... done
Storing optimized geometry and energy in dihedral.xyzall ... done
Storing actual gbw-file in dihedral.042.gbw ... done

                            ***************************************
                            *     ORCA property calculations      *
                            ***************************************

                                    ---------------------
                                    Active property flags
                                    ---------------------
   (+) Dipole Moment


------------------------------------------------------------------------------
                       ORCA ELECTRIC PROPERTIES CALCULATION
------------------------------------------------------------------------------

Dipole Moment Calculation                       ... on
Quadrupole Moment Calculation                   ... off
Polarizability Calculation                      ... off
GBWName                                         ... dihedral.gbw
Electron density file                           ... dihedral.scfp
The origin for moment calculation is the CENTER OF MASS  = (-1.948789,  1.567760 -0.262667)

-------------
DIPOLE MOMENT
-------------
                                X             Y             Z
Electronic contribution:     -0.00004      -0.00002       0.00002
Nuclear contribution   :      0.00004       0.00002      -0.00002
                        -----------------------------------------
Total Dipole Moment    :      0.00000       0.00000      -0.00000
                        -----------------------------------------
Magnitude (a.u.)       :      0.00000
Magnitude (Debye)      :      0.00000



--------------------
Rotational spectrum 
--------------------
 
Rotational constants in cm-1:     2.742555     0.657898     0.657897 
Rotational constants in MHz : 82219.739991 19723.279732 19723.245028 

 Dipole components along the rotational axes: 
x,y,z [a.u.] :    -0.000000    -0.000000    -0.000000 
x,y,z [Debye]:    -0.000000    -0.000001    -0.000000 

 
                   **** RELAXED SURFACE SCAN DONE ***

                    SUMMARY OF THE CALCULATED SURFACE

----------------------------
RELAXED SURFACE SCAN RESULTS
----------------------------

Column   1: NONAME

The Calculated Surface using the 'Actual Energy'
   0.00000000 -79.22348683
   8.78048780 -79.22375445
  17.56097561 -79.22448801
  26.34146341 -79.22550846
  35.12195122 -79.22658772
  43.90243902 -79.22750697
  52.68292683 -79.22809522
  61.46341463 -79.22824954
  70.24390244 -79.22794378
  79.02439024 -79.22722997
  87.80487805 -79.22623480
  96.58536585 -79.22514861
 105.36585366 -79.22419972
 114.14634146 -79.22360696
 122.92682927 -79.22351713
 131.70731707 -79.22395376
 140.48780488 -79.22480760
 149.26829268 -79.22587569
 158.04878049 -79.22692498
 166.82926829 -79.22774843
 175.60975610 -79.22819802
 184.39024390 -79.22819801
 193.17073171 -79.22774841
 201.95121951 -79.22692494
 210.73170732 -79.22587564
 219.51219512 -79.22480758
 228.29268293 -79.22395378
 237.07317073 -79.22351718
 245.85365854 -79.22360700
 254.63414634 -79.22419976
 263.41463415 -79.22514867
 272.19512195 -79.22623484
 280.97560976 -79.22723000
 289.75609756 -79.22794380
 298.53658537 -79.22824955
 307.31707317 -79.22809516
 316.09756098 -79.22750693
 324.87804878 -79.22658768
 333.65853659 -79.22550844
 342.43902439 -79.22448801
 351.21951220 -79.22375445
 360.00000000 -79.22348696

The Calculated Surface using the SCF energy
   0.00000000 -79.22348683
   8.78048780 -79.22375445
  17.56097561 -79.22448801
  26.34146341 -79.22550846
  35.12195122 -79.22658772
  43.90243902 -79.22750697
  52.68292683 -79.22809522
  61.46341463 -79.22824954
  70.24390244 -79.22794378
  79.02439024 -79.22722997
  87.80487805 -79.22623480
  96.58536585 -79.22514861
 105.36585366 -79.22419972
 114.14634146 -79.22360696
 122.92682927 -79.22351713
 131.70731707 -79.22395376
 140.48780488 -79.22480760
 149.26829268 -79.22587569
 158.04878049 -79.22692498
 166.82926829 -79.22774843
 175.60975610 -79.22819802
 184.39024390 -79.22819801
 193.17073171 -79.22774841
 201.95121951 -79.22692494
 210.73170732 -79.22587564
 219.51219512 -79.22480758
 228.29268293 -79.22395378
 237.07317073 -79.22351718
 245.85365854 -79.22360700
 254.63414634 -79.22419976
 263.41463415 -79.22514867
 272.19512195 -79.22623484
 280.97560976 -79.22723000
 289.75609756 -79.22794380
 298.53658537 -79.22824955
 307.31707317 -79.22809516
 316.09756098 -79.22750693
 324.87804878 -79.22658768
 333.65853659 -79.22550844
 342.43902439 -79.22448801
 351.21951220 -79.22375445
 360.00000000 -79.22348696


Timings for individual modules:

Sum of individual times         ...      256.224 sec (=   4.270 min)
GTO integral calculation        ...       35.856 sec (=   0.598 min)  14.0 %
SCF iterations                  ...      177.701 sec (=   2.962 min)  69.4 %
SCF Gradient evaluation         ...       35.719 sec (=   0.595 min)  13.9 %
Geometry relaxation             ...        6.948 sec (=   0.116 min)   2.7 %
                             ****ORCA TERMINATED NORMALLY****
TOTAL RUN TIME: 0 days 0 hours 4 minutes 29 seconds 680 msec
