2
Coordinates from ORCA-job pes Relaxed Surface Scan Step 1
  H      -3.552703      1.369244      0.000000
  H      -3.053627      1.338866      0.000000
>
2
Coordinates from ORCA-job pes Relaxed Surface Scan Step 2
  H      -3.649463      1.375133      0.000000
  H      -2.956867      1.332977      0.000000
>
2
Coordinates from ORCA-job pes Relaxed Surface Scan Step 3
  H      -3.746223      1.381023      0.000000
  H      -2.860107      1.327087      0.000000
>
2
Coordinates from ORCA-job pes Relaxed Surface Scan Step 4
  H      -3.842982      1.386912      0.000000
  H      -2.763348      1.321198      0.000000
>
2
Coordinates from ORCA-job pes Relaxed Surface Scan Step 5
  H      -3.939742      1.392801      0.000000
  H      -2.666588      1.315309      0.000000
>
2
Coordinates from ORCA-job pes Relaxed Surface Scan Step 6
  H      -4.036502      1.398691      0.000000
  H      -2.569828      1.309419      0.000000
>
2
Coordinates from ORCA-job pes Relaxed Surface Scan Step 7
  H      -4.133261      1.404580      0.000000
  H      -2.473069      1.303530      0.000000
>
2
Coordinates from ORCA-job pes Relaxed Surface Scan Step 8
  H      -4.230021      1.410470      0.000000
  H      -2.376309      1.297640      0.000000
>
2
Coordinates from ORCA-job pes Relaxed Surface Scan Step 9
  H      -4.326781      1.416359      0.000000
  H      -2.279549      1.291751      0.000000
>
2
Coordinates from ORCA-job pes Relaxed Surface Scan Step 10
  H      -4.423541      1.422249      0.000000
  H      -2.182789      1.285861      0.000000
>
2
Coordinates from ORCA-job pes Relaxed Surface Scan Step 11
  H      -4.520300      1.428138      0.000000
  H      -2.086030      1.279972      0.000000
>
2
Coordinates from ORCA-job pes Relaxed Surface Scan Step 12
  H      -4.617060      1.434028      0.000000
  H      -1.989270      1.274082      0.000000
>
2
Coordinates from ORCA-job pes Relaxed Surface Scan Step 13
  H      -4.713820      1.439917      0.000000
  H      -1.892510      1.268193      0.000000
>
2
Coordinates from ORCA-job pes Relaxed Surface Scan Step 14
  H      -4.810579      1.445807      0.000000
  H      -1.795751      1.262303      0.000000
>
2
Coordinates from ORCA-job pes Relaxed Surface Scan Step 15
  H      -4.907339      1.451696      0.000000
  H      -1.698991      1.256414      0.000000
>
2
Coordinates from ORCA-job pes Relaxed Surface Scan Step 16
  H      -5.004099      1.457586      0.000000
  H      -1.602231      1.250524      0.000000
>
2
Coordinates from ORCA-job pes Relaxed Surface Scan Step 17
  H      -5.100858      1.463475      0.000000
  H      -1.505472      1.244635      0.000000
>
2
Coordinates from ORCA-job pes Relaxed Surface Scan Step 18
  H      -5.197618      1.469364      0.000000
  H      -1.408712      1.238746      0.000000
>
2
Coordinates from ORCA-job pes Relaxed Surface Scan Step 19
  H      -5.294378      1.475254      0.000000
  H      -1.311952      1.232856      0.000000
>
2
Coordinates from ORCA-job pes Relaxed Surface Scan Step 20
  H      -5.391138      1.481143      0.000000
  H      -1.215192      1.226967      0.000000
>
2
Coordinates from ORCA-job pes Relaxed Surface Scan Step 21
  H      -5.487897      1.487033      0.000000
  H      -1.118433      1.221077      0.000000
>
2
Coordinates from ORCA-job pes Relaxed Surface Scan Step 22
  H      -5.584657      1.492922      0.000000
  H      -1.021673      1.215188      0.000000
>
2
Coordinates from ORCA-job pes Relaxed Surface Scan Step 23
  H      -5.681417      1.498812      0.000000
  H      -0.924913      1.209298      0.000000
>
2
Coordinates from ORCA-job pes Relaxed Surface Scan Step 24
  H      -5.778176      1.504701      0.000000
  H      -0.828154      1.203409      0.000000
>
2
Coordinates from ORCA-job pes Relaxed Surface Scan Step 25
  H      -5.874936      1.510591      0.000000
  H      -0.731394      1.197519      0.000000
>
2
Coordinates from ORCA-job pes Relaxed Surface Scan Step 26
  H      -5.971696      1.516480      0.000000
  H      -0.634634      1.191630      0.000000
>
2
Coordinates from ORCA-job pes Relaxed Surface Scan Step 27
  H      -6.068456      1.522370      0.000000
  H      -0.537874      1.185740      0.000000
>
2
Coordinates from ORCA-job pes Relaxed Surface Scan Step 28
  H      -6.165215      1.528259      0.000000
  H      -0.441115      1.179851      0.000000
>
2
Coordinates from ORCA-job pes Relaxed Surface Scan Step 29
  H      -6.261975      1.534149      0.000000
  H      -0.344355      1.173961      0.000000
>
2
Coordinates from ORCA-job pes Relaxed Surface Scan Step 30
  H      -6.358735      1.540038      0.000000
  H      -0.247595      1.168072      0.000000
>
2
Coordinates from ORCA-job pes Relaxed Surface Scan Step 31
  H      -6.455494      1.545927      0.000000
  H      -0.150836      1.162183      0.000000
>
2
Coordinates from ORCA-job pes Relaxed Surface Scan Step 32
  H      -6.552254      1.551817      0.000000
  H      -0.054076      1.156293      0.000000
>
2
Coordinates from ORCA-job pes Relaxed Surface Scan Step 33
  H      -6.649014      1.557706      0.000000
  H       0.042684      1.150404      0.000000
>
2
Coordinates from ORCA-job pes Relaxed Surface Scan Step 34
  H      -6.745773      1.563596      0.000000
  H       0.139443      1.144514      0.000000
>
2
Coordinates from ORCA-job pes Relaxed Surface Scan Step 35
  H      -6.842533      1.569485      0.000000
  H       0.236203      1.138625      0.000000
>
2
Coordinates from ORCA-job pes Relaxed Surface Scan Step 36
  H      -6.939293      1.575375      0.000000
  H       0.332963      1.132735      0.000000
>
2
Coordinates from ORCA-job pes Relaxed Surface Scan Step 37
  H      -7.036053      1.581264      0.000000
  H       0.429723      1.126846      0.000000
>
2
Coordinates from ORCA-job pes Relaxed Surface Scan Step 38
  H      -7.132812      1.587154      0.000000
  H       0.526482      1.120956      0.000000
>
2
Coordinates from ORCA-job pes Relaxed Surface Scan Step 39
  H      -7.229572      1.593043      0.000000
  H       0.623242      1.115067      0.000000
>
2
Coordinates from ORCA-job pes Relaxed Surface Scan Step 40
  H      -7.326332      1.598933      0.000000
  H       0.720002      1.109177      0.000000
>
2
Coordinates from ORCA-job pes Relaxed Surface Scan Step 41
  H      -7.423091      1.604822      0.000000
  H       0.816761      1.103288      0.000000
>
2
Coordinates from ORCA-job pes Relaxed Surface Scan Step 42
  H      -7.519851      1.610711      0.000000
  H       0.913521      1.097399      0.000000
>
2
Coordinates from ORCA-job pes Relaxed Surface Scan Step 43
  H      -7.616611      1.616601      0.000000
  H       1.010281      1.091509      0.000000
>
2
Coordinates from ORCA-job pes Relaxed Surface Scan Step 44
  H      -7.713370      1.622490      0.000000
  H       1.107040      1.085620      0.000000
>
2
Coordinates from ORCA-job pes Relaxed Surface Scan Step 45
  H      -7.810130      1.628380      0.000000
  H       1.203800      1.079730      0.000000
>
2
Coordinates from ORCA-job pes Relaxed Surface Scan Step 46
  H      -7.906890      1.634269      0.000000
  H       1.300560      1.073841      0.000000
>
2
Coordinates from ORCA-job pes Relaxed Surface Scan Step 47
  H      -8.003650      1.640159      0.000000
  H       1.397320      1.067951      0.000000
>
2
Coordinates from ORCA-job pes Relaxed Surface Scan Step 48
  H      -8.100409      1.646048      0.000000
  H       1.494079      1.062062      0.000000
>
2
Coordinates from ORCA-job pes Relaxed Surface Scan Step 49
  H      -8.197169      1.651938      0.000000
  H       1.590839      1.056172      0.000000
>
2
Coordinates from ORCA-job pes Relaxed Surface Scan Step 50
  H      -8.293929      1.657827      0.000000
  H       1.687599      1.050283      0.000000
