
                                 *****************
                                 * O   R   C   A *
                                 *****************

           --- An Ab Initio, DFT and Semiempirical electronic structure package ---

                  #######################################################
                  #                        -***-                        #
                  #          Department of theory and spectroscopy      #
                  #               Directorship: Frank Neese             #
                  #        Max Planck Institute fuer Kohlenforschung    #
                  #                Kaiser Wilhelm Platz 1               #
                  #                 D-45470 Muelheim/Ruhr               #
                  #                      Germany                        #
                  #                                                     #
                  #                  All rights reserved                #
                  #                        -***-                        #
                  #######################################################


                         Program Version 4.2.1 -  RELEASE  -


 With contributions from (in alphabetic order):
   Daniel Aravena         : Magnetic Suceptibility
   Michael Atanasov       : Ab Initio Ligand Field Theory (pilot matlab implementation)
   Alexander A. Auer      : GIAO ZORA, VPT2
   Ute Becker             : Parallelization
   Giovanni Bistoni       : ED, misc. LED, open-shell LED, HFLD
   Martin Brehm           : Molecular dynamics
   Dmytro Bykov           : SCF Hessian
   Vijay G. Chilkuri      : MRCI spin determinant printing, contributions to CSF-ICE
   Dipayan Datta          : RHF DLPNO-CCSD density
   Achintya Kumar Dutta   : EOM-CC, STEOM-CC
   Dmitry Ganyushin       : Spin-Orbit,Spin-Spin,Magnetic field MRCI
   Miquel Garcia          : C-PCM Hessian, Gaussian charge scheme
   Yang Guo               : DLPNO-NEVPT2, CIM, IAO-localization
   Andreas Hansen         : Spin unrestricted coupled pair/coupled cluster methods
   Benjamin Helmich-Paris : CASSCF linear response (MC-RPA)
   Lee Huntington         : MR-EOM, pCC
   Robert Izsak           : Overlap fitted RIJCOSX, COSX-SCS-MP3, EOM
   Christian Kollmar      : KDIIS, OOCD, Brueckner-CCSD(T), CCSD density
   Simone Kossmann        : Meta GGA functionals, TD-DFT gradient, OOMP2, MP2 Hessian
   Martin Krupicka        : AUTO-CI
   Lucas Lang             : DCDCAS
   Dagmar Lenk            : GEPOL surface, SMD
   Dimitrios Liakos       : Extrapolation schemes; Compound Job, initial MDCI parallelization
   Dimitrios Manganas     : Further ROCIS development; embedding schemes
   Dimitrios Pantazis     : SARC Basis sets
   Taras Petrenko         : DFT Hessian,TD-DFT gradient, ASA, ECA, R-Raman, ABS, FL, XAS/XES, NRVS
   Peter Pinski           : DLPNO-MP2, DLPNO-MP2 Gradient
   Christoph Reimann      : Effective Core Potentials
   Marius Retegan         : Local ZFS, SOC
   Christoph Riplinger    : Optimizer, TS searches, QM/MM, DLPNO-CCSD(T), (RO)-DLPNO pert. Triples
   Tobias Risthaus        : Range-separated hybrids, TD-DFT gradient, RPA, STAB
   Michael Roemelt        : Original ROCIS implementation
   Masaaki Saitow         : Open-shell DLPNO-CCSD energy and density
   Barbara Sandhoefer     : DKH picture change effects
   Avijit Sen             : IP-ROCIS
   Kantharuban Sivalingam : CASSCF convergence, NEVPT2, FIC-MRCI
   Bernardo de Souza      : ESD, SOC TD-DFT
   Georgi Stoychev        : AutoAux, RI-MP2 NMR
   Willem Van den Heuvel  : Paramagnetic NMR
   Boris Wezisla          : Elementary symmetry handling
   Frank Wennmohs         : Technical directorship


 We gratefully acknowledge several colleagues who have allowed us to
 interface, adapt or use parts of their codes:
   Stefan Grimme, W. Hujo, H. Kruse,             : VdW corrections, initial TS optimization,
                  C. Bannwarth                     DFT functionals, gCP, sTDA/sTD-DF
   Ed Valeev, F. Pavosevic, A. Kumar             : LibInt (2-el integral package), F12 methods
   Garnet Chan, S. Sharma, J. Yang, R. Olivares  : DMRG
   Ulf Ekstrom                                   : XCFun DFT Library
   Mihaly Kallay                                 : mrcc  (arbitrary order and MRCC methods)
   Andreas Klamt, Michael Diedenhofen            : otool_cosmo (COSMO solvation model)
   Jiri Pittner, Ondrej Demel                    : Mk-CCSD
   Frank Weinhold                                : gennbo (NPA and NBO analysis)
   Christopher J. Cramer and Donald G. Truhlar   : smd solvation model
   Lars Goerigk                                  : TD-DFT with DH, B97 family of functionals
   V. Asgeirsson, H. Jonsson                     : NEB implementation
   FAccTs GmbH                                   : IRC, NEB, NEB-TS, Multilevel, MM, QM/MM, CI optimization
   S Lehtola, MJT Oliveira, MAL Marques          : LibXC Library


 Your calculation uses the libint2 library for the computation of 2-el integrals
 For citations please refer to: http://libint.valeyev.net

 Your ORCA version has been built with support for libXC version: 4.2.3
 For citations please refer to: https://tddft.org/programs/libxc/

 This ORCA versions uses:
   CBLAS   interface :  Fast vector & matrix operations
   LAPACKE interface :  Fast linear algebra routines
   SCALAPACK package :  Parallel linear algebra routines




***************************************
The coordinates will be read from file: ../single_point_energy/hydrogen.xyz
***************************************


Your calculation utilizes the atom-pairwise dispersion correction
with the Becke-Johnson damping scheme (D3BJ)
Cite in your paper:
S.Grimme, S.Ehrlich, L.Goerigk, J Comput Chem, (2011), 32, 1456–1465 
S.Grimme, J.Antony, S.Ehrlich and H.Krieg, J.Chem.Phys., 132, (2010), 154104 
   

----- Orbital basis set information -----
Your calculation utilizes the basis: def2-SVP
   F. Weigend and R. Ahlrichs, Phys. Chem. Chem. Phys. 7, 3297 (2005).

================================================================================
                                        WARNINGS
                       Please study these warnings very carefully!
================================================================================


WARNING: Geometry Optimization
  ===> : Switching off AutoStart
         For restart on a previous wavefunction, please use MOREAD

INFO   : the flag for use of LIBINT has been found!

================================================================================
                                       INPUT FILE
================================================================================
NAME = hydrogenDFTB3D3.txt
|  1> ! DFT B3LYP D3 Opt
|  2> 
|  3> *xyzfile 0 1 ../single_point_energy/hydrogen.xyz
|  4> %base "optimisationDFTB3D3hydrogen""                         ****END OF INPUT****
================================================================================

                       *****************************
                       * Geometry Optimization Run *
                       *****************************

Geometry optimization settings:
Update method            Update   .... BFGS
Choice of coordinates    CoordSys .... Z-matrix Internals
Initial Hessian          InHess   .... Almoef's Model

Convergence Tolerances:
Energy Change            TolE     ....  5.0000e-06 Eh
Max. Gradient            TolMAXG  ....  3.0000e-04 Eh/bohr
RMS Gradient             TolRMSG  ....  1.0000e-04 Eh/bohr
Max. Displacement        TolMAXD  ....  4.0000e-03 bohr
RMS Displacement         TolRMSD  ....  2.0000e-03 bohr
Strict Convergence                ....  False
------------------------------------------------------------------------------
                        ORCA OPTIMIZATION COORDINATE SETUP
------------------------------------------------------------------------------

The optimization will be done in new redundant internal coordinates
Making redundant internal coordinates   ...  (new redundants) done
Evaluating the initial hessian          ...  (Almloef) done
Evaluating the coordinates              ...  done
Calculating the B-matrix                .... done
Calculating the G-matrix                .... done
Diagonalizing the G-matrix              .... done
The first mode is                       ....    0
The number of degrees of freedom        ....    1

    -----------------------------------------------------------------
                    Redundant Internal Coordinates


    -----------------------------------------------------------------
         Definition                    Initial Value    Approx d2E/dq
    -----------------------------------------------------------------
      1. B(H   1,H   0)                  2.4184         0.000524   
    -----------------------------------------------------------------

Number of atoms                         .... 2
Number of degrees of freedom            .... 1

         *************************************************************
         *                GEOMETRY OPTIMIZATION CYCLE   1            *
         *************************************************************
---------------------------------
CARTESIAN COORDINATES (ANGSTROEM)
---------------------------------
  H     -5.819090    1.546010    0.000000
  H     -3.419470    1.847190   -0.000000

----------------------------
CARTESIAN COORDINATES (A.U.)
----------------------------
  NO LB      ZA    FRAG     MASS         X           Y           Z
   0 H     1.0000    0     1.008  -10.996486    2.921536    0.000000
   1 H     1.0000    0     1.008   -6.461862    3.490683   -0.000000

--------------------------------
INTERNAL COORDINATES (ANGSTROEM)
--------------------------------
 H      0   0   0     0.000000000000     0.00000000     0.00000000
 H      1   0   0     2.418446926604     0.00000000     0.00000000

---------------------------
INTERNAL COORDINATES (A.U.)
---------------------------
 H      0   0   0     0.000000000000     0.00000000     0.00000000
 H      1   0   0     4.570202360705     0.00000000     0.00000000

---------------------
BASIS SET INFORMATION
---------------------
There are 1 groups of distinct atoms

 Group   1 Type H   : 4s1p contracted to 2s1p pattern {31/1}

Atom   0H    basis set group =>   1
Atom   1H    basis set group =>   1
------------------------------------------------------------------------------
                           ORCA GTO INTEGRAL CALCULATION
------------------------------------------------------------------------------

                         BASIS SET STATISTICS AND STARTUP INFO

 # of primitive gaussian shells          ...   10
 # of primitive gaussian functions       ...   14
 # of contracted shells                  ...    6
 # of contracted basis functions         ...   10
 Highest angular momentum                ...    1
 Maximum contraction depth               ...    3
 Integral package used                   ... LIBINT
 Integral threshhold            Thresh   ...  2.500e-11
 Primitive cut-off              TCut     ...  2.500e-12


------------------------------ INTEGRAL EVALUATION ----------------------------


 * One electron integrals 
 Pre-screening matrix                    ... done
 Shell pair data                         ... done (   0.000 sec)

-------------------------------------------------------------------------------
                                 ORCA SCF
-------------------------------------------------------------------------------

------------
SCF SETTINGS
------------
Hamiltonian:
 Density Functional     Method          .... DFT(GTOs)
 Exchange Functional    Exchange        .... B88
   X-Alpha parameter    XAlpha          ....  0.666667
   Becke's b parameter  XBeta           ....  0.004200
 Correlation Functional Correlation     .... LYP
 LDA part of GGA corr.  LDAOpt          .... VWN-5
 Gradients option       PostSCFGGA      .... off
 Hybrid DFT is turned on
   Fraction HF Exchange ScalHFX         ....  0.200000
   Scaling of DF-GGA-X  ScalDFX         ....  0.720000
   Scaling of DF-GGA-C  ScalDFC         ....  0.810000
   Scaling of DF-LDA-C  ScalLDAC        ....  1.000000
   Perturbative correction              ....  0.000000
   Density functional embedding theory  .... OFF
   NL short-range parameter             ....  4.800000


General Settings:
 Integral files         IntName         .... optimisationDFTB3D3hydrogen
 Hartree-Fock type      HFTyp           .... RHF
 Total Charge           Charge          ....    0
 Multiplicity           Mult            ....    1
 Number of Electrons    NEL             ....    2
 Basis Dimension        Dim             ....   10
 Nuclear Repulsion      ENuc            ....      0.2188086918 Eh

Convergence Acceleration:
 DIIS                   CNVDIIS         .... on
   Start iteration      DIISMaxIt       ....    12
   Startup error        DIISStart       ....  0.200000
   # of expansion vecs  DIISMaxEq       ....     5
   Bias factor          DIISBfac        ....   1.050
   Max. coefficient     DIISMaxC        ....  10.000
 Newton-Raphson         CNVNR           .... off
 SOSCF                  CNVSOSCF        .... on
   Start iteration      SOSCFMaxIt      ....   150
   Startup grad/error   SOSCFStart      ....  0.003300
 Level Shifting         CNVShift        .... on
   Level shift para.    LevelShift      ....    0.2500
   Turn off err/grad.   ShiftErr        ....    0.0010
 Zerner damping         CNVZerner       .... off
 Static damping         CNVDamp         .... on
   Fraction old density DampFac         ....    0.7000
   Max. Damping (<1)    DampMax         ....    0.9800
   Min. Damping (>=0)   DampMin         ....    0.0000
   Turn off err/grad.   DampErr         ....    0.1000
 Fernandez-Rico         CNVRico         .... off

SCF Procedure:
 Maximum # iterations   MaxIter         ....   125
 SCF integral mode      SCFMode         .... Direct
   Integral package                     .... LIBINT
 Reset frequency        DirectResetFreq ....    20
 Integral Threshold     Thresh          ....  2.500e-11 Eh
 Primitive CutOff       TCut            ....  2.500e-12 Eh

Convergence Tolerance:
 Convergence Check Mode ConvCheckMode   .... Total+1el-Energy
 Convergence forced     ConvForced      .... 0
 Energy Change          TolE            ....  1.000e-08 Eh
 1-El. energy change                    ....  1.000e-05 Eh
 Orbital Gradient       TolG            ....  1.000e-05
 Orbital Rotation angle TolX            ....  1.000e-05
 DIIS Error             TolErr          ....  5.000e-07


Diagonalization of the overlap matrix:
Smallest eigenvalue                        ... 2.427e-01
Time for diagonalization                   ...    0.000 sec
Threshold for overlap eigenvalues          ... 1.000e-08
Number of eigenvalues below threshold      ... 0
Time for construction of square roots      ...    0.000 sec
Total time needed                          ...    0.000 sec

-------------------
DFT GRID GENERATION
-------------------

General Integration Accuracy     IntAcc      ...  4.340
Radial Grid Type                 RadialGrid  ... Gauss-Chebyshev
Angular Grid (max. acc.)         AngularGrid ... Lebedev-110
Angular grid pruning method      GridPruning ... 3 (G Style)
Weight generation scheme         WeightScheme... Becke
Basis function cutoff            BFCut       ...    1.0000e-11
Integration weight cutoff        WCut        ...    1.0000e-14
Grids for H and He will be reduced by one unit

# of grid points (after initial pruning)     ...   1588 (   0.0 sec)
# of grid points (after weights+screening)   ...   1584 (   0.0 sec)
nearest neighbour list constructed           ...    0.0 sec
Grid point re-assignment to atoms done       ...    0.0 sec
Grid point division into batches done        ...    0.0 sec
Reduced shell lists constructed in    0.0 sec

Total number of grid points                  ...     1584
Total number of batches                      ...       26
Average number of points per batch           ...       60
Average number of grid points per atom       ...      792
Average number of shells per batch           ...     5.74 (95.68%)
Average number of basis functions per batch  ...     9.52 (95.19%)
Average number of large shells per batch     ...     5.41 (94.19%)
Average number of large basis fcns per batch ...     8.59 (90.27%)
Maximum spatial batch extension              ...  15.10, 21.59, 21.59 au
Average spatial batch extension              ...   5.51,  8.03,  7.92 au

Time for grid setup =    0.003 sec

------------------------------
INITIAL GUESS: MODEL POTENTIAL
------------------------------
Loading Hartree-Fock densities                     ... done
Calculating cut-offs                               ... done
Setting up the integral package                    ... done
Initializing the effective Hamiltonian             ... done
Starting the Coulomb interaction                   ... done (   0.0 sec)
Reading the grid                                   ... done
Mapping shells                                     ... done
Starting the XC term evaluation                    ... done (   0.0 sec)
  promolecular density results
     # of electrons  =      1.998337488
     EX              =     -0.517685049
     EC              =     -0.028530154
     EX+EC           =     -0.546215203
Transforming the Hamiltonian                       ... done (   0.0 sec)
Diagonalizing the Hamiltonian                      ... done (   0.0 sec)
Back transforming the eigenvectors                 ... done (   0.0 sec)
Now organizing SCF variables                       ... done
                      ------------------
                      INITIAL GUESS DONE (   0.1 sec)
                      ------------------
--------------
SCF ITERATIONS
--------------
ITER       Energy         Delta-E        Max-DP      RMS-DP      [F,P]     Damp
               ***  Starting incremental Fock matrix formation  ***
  0     -0.9562753474   0.000000000000 0.00159445  0.00035843  0.0033769 0.7000
                      *** Initiating the SOSCF procedure ***
                      *** Re-Reading the Fockian *** 
                      *** Removing any level shift *** 
ITER      Energy       Delta-E        Grad      Rot      Max-DP    RMS-DP
  1     -0.95628955  -0.0000142021  0.000966  0.000966  0.004989  0.001120
               *** Restarting incremental Fock matrix formation ***
  2     -0.95632363  -0.0000340821  0.000079  0.000099  0.000129  0.000030
  3     -0.95632365  -0.0000000209  0.000005  0.000006  0.000007  0.000002
                 **** Energy Check signals convergence ****
              ***Rediagonalizing the Fockian in SOSCF/NRSCF***

               *****************************************************
               *                     SUCCESS                       *
               *           SCF CONVERGED AFTER   4 CYCLES          *
               *****************************************************

Setting up the final grid:

General Integration Accuracy     IntAcc      ...  4.670
Radial Grid Type                 RadialGrid  ... Gauss-Chebyshev
Angular Grid (max. acc.)         AngularGrid ... Lebedev-302
Angular grid pruning method      GridPruning ... 3 (G Style)
Weight generation scheme         WeightScheme... Becke
Basis function cutoff            BFCut       ...    1.0000e-11
Integration weight cutoff        WCut        ...    1.0000e-14
Grids for H and He will be reduced by one unit

# of grid points (after initial pruning)     ...   6788 (   0.0 sec)
# of grid points (after weights+screening)   ...   6784 (   0.0 sec)
nearest neighbour list constructed           ...    0.0 sec
Grid point re-assignment to atoms done       ...    0.0 sec
Grid point division into batches done        ...    0.0 sec
Reduced shell lists constructed in    0.0 sec

Total number of grid points                  ...     6784
Total number of batches                      ...      108
Average number of points per batch           ...       62
Average number of grid points per atom       ...     3392
Average number of shells per batch           ...     5.55 (92.51%)
Average number of basis functions per batch  ...     9.00 (90.00%)
Average number of large shells per batch     ...     5.11 (92.07%)
Average number of large basis fcns per batch ...     7.99 (88.79%)
Maximum spatial batch extension              ...  13.75, 15.43, 17.51 au
Average spatial batch extension              ...   3.89,  4.09,  4.09 au

Final grid set up in    0.0 sec
Final integration                            ... done (   0.0 sec)
Change in XC energy                          ...    -0.000205937
Integrated number of electrons               ...     2.000002618
Previous integrated no of electrons          ...     2.000054068

----------------
TOTAL SCF ENERGY
----------------

Total Energy       :           -0.95652959 Eh             -26.02849 eV

Components:
Nuclear Repulsion  :            0.21880869 Eh               5.95409 eV
Electronic Energy  :           -1.17533828 Eh             -31.98258 eV
One Electron Energy:           -1.48637112 Eh             -40.44621 eV
Two Electron Energy:            0.31103284 Eh               8.46363 eV

Virial components:
Potential Energy   :           -1.73290263 Eh             -47.15468 eV
Kinetic Energy     :            0.77637304 Eh              21.12618 eV
Virial Ratio       :            2.23204895


DFT components:
N(Alpha)           :        1.000001309199 electrons
N(Beta)            :        1.000001309199 electrons
N(Total)           :        2.000002618398 electrons
E(X)               :       -0.369935166876 Eh       
E(C)               :       -0.038689335766 Eh       
E(XC)              :       -0.408624502642 Eh       
DFET-embed. en.    :        0.000000000000 Eh       

---------------
SCF CONVERGENCE
---------------

  Last Energy change         ...   -5.8657e-11  Tolerance :   1.0000e-08
  Last MAX-Density change    ...    6.7669e-09  Tolerance :   1.0000e-07
  Last RMS-Density change    ...    1.8295e-09  Tolerance :   5.0000e-09
  Last Orbital Gradient      ...    2.2274e-08  Tolerance :   1.0000e-05
  Last Orbital Rotation      ...    1.3301e-08  Tolerance :   1.0000e-05

             **** THE GBW FILE WAS UPDATED (optimisationDFTB3D3hydrogen.gbw) ****
             **** DENSITY FILE WAS UPDATED (optimisationDFTB3D3hydrogen.scfp) ****
             **** ENERGY FILE WAS UPDATED (optimisationDFTB3D3hydrogen.en.tmp) ****
             **** THE GBW FILE WAS UPDATED (optimisationDFTB3D3hydrogen.gbw) ****
             **** DENSITY FILE WAS UPDATED (optimisationDFTB3D3hydrogen.scfp) ****
----------------
ORBITAL ENERGIES
----------------

  NO   OCC          E(Eh)            E(eV) 
   0   2.0000      -0.282977        -7.7002 
   1   0.0000      -0.186530        -5.0757 
   2   0.0000       0.439790        11.9673 
   3   0.0000       0.483536        13.1577 
   4   0.0000       1.376855        37.4661 
   5   0.0000       1.387761        37.7629 
   6   0.0000       1.388366        37.7794 
   7   0.0000       1.391786        37.8724 
   8   0.0000       1.392142        37.8821 
   9   0.0000       1.435507        39.0621 

                    ********************************
                    * MULLIKEN POPULATION ANALYSIS *
                    ********************************

-----------------------
MULLIKEN ATOMIC CHARGES
-----------------------
   0 H :   -0.000000
   1 H :    0.000000
Sum of atomic charges:   -0.0000000

--------------------------------
MULLIKEN REDUCED ORBITAL CHARGES
--------------------------------
  0 H s       :     0.999752  s :     0.999752
      pz      :     0.000000  p :     0.000248
      px      :     0.000240
      py      :     0.000007
  1 H s       :     0.999752  s :     0.999752
      pz      :     0.000000  p :     0.000248
      px      :     0.000240
      py      :     0.000007


                     *******************************
                     * LOEWDIN POPULATION ANALYSIS *
                     *******************************

----------------------
LOEWDIN ATOMIC CHARGES
----------------------
   0 H :   -0.000000
   1 H :    0.000000

-------------------------------
LOEWDIN REDUCED ORBITAL CHARGES
-------------------------------
  0 H s       :     0.999557  s :     0.999557
      pz      :     0.000000  p :     0.000443
      px      :     0.000433
      py      :     0.000010
  1 H s       :     0.999557  s :     0.999557
      pz      :     0.000000  p :     0.000443
      px      :     0.000433
      py      :     0.000010


                      *****************************
                      * MAYER POPULATION ANALYSIS *
                      *****************************

  NA   - Mulliken gross atomic population
  ZA   - Total nuclear charge
  QA   - Mulliken gross atomic charge
  VA   - Mayer's total valence
  BVA  - Mayer's bonded valence
  FA   - Mayer's free valence

  ATOM       NA         ZA         QA         VA         BVA        FA
  0 H      1.0000     1.0000    -0.0000     1.0000     1.0000    -0.0000
  1 H      1.0000     1.0000     0.0000     1.0000     1.0000    -0.0000

  Mayer bond orders larger than 0.100000
B(  0-H ,  1-H ) :   1.0000 

-------
TIMINGS
-------

Total SCF time: 0 days 0 hours 0 min 0 sec 

Total time                  ....       0.559 sec
Sum of individual times     ....       0.439 sec  ( 78.4%)

Fock matrix formation       ....       0.364 sec  ( 65.2%)
  XC integration            ....       0.014 sec  (  3.7% of F)
    Basis function eval.    ....       0.003 sec  ( 18.6% of XC)
    Density eval.           ....       0.003 sec  ( 20.2% of XC)
    XC-Functional eval.     ....       0.004 sec  ( 32.5% of XC)
    XC-Potential eval.      ....       0.001 sec  (  5.0% of XC)
Diagonalization             ....       0.000 sec  (  0.0%)
Density matrix formation    ....       0.000 sec  (  0.0%)
Population analysis         ....       0.000 sec  (  0.1%)
Initial guess               ....       0.055 sec  (  9.8%)
Orbital Transformation      ....       0.000 sec  (  0.0%)
Orbital Orthonormalization  ....       0.000 sec  (  0.0%)
DIIS solution               ....       0.000 sec  (  0.0%)
SOSCF solution              ....       0.000 sec  (  0.0%)
Grid generation             ....       0.019 sec  (  3.3%)


-------------------------------------------------------------------------------
                          DFT DISPERSION CORRECTION                            
                                                                               
                              DFTD3 V3.1  Rev 1                                
                          USING Becke-Johnson damping                          
-------------------------------------------------------------------------------
The B3LYP functional is recognized
Active option DFTDOPT                   ...         4   

molecular C6(AA) [au] = 29.579403 


            DFT-D V3
 parameters
 s6 scaling factor         :     1.0000 
 a1 scaling factor         :     0.3981 
 s8 scaling factor         :     1.9889 
 a2 scaling factor         :     4.4211 
 ad hoc parameters k1-k3   :    16.0000     1.3333    -4.0000 

 Edisp/kcal,au: -0.173295731195  -0.000276164297 
 E6   /kcal   :  -0.097924419 
 E8   /kcal   :  -0.075371312 
 % E8         :  43.492884474 

-------------------------   ----------------
Dispersion correction           -0.000276164
-------------------------   ----------------


-------------------------   --------------------
FINAL SINGLE POINT ENERGY        -0.956805753328
-------------------------   --------------------

------------------------------------------------------------------------------
                         ORCA SCF GRADIENT CALCULATION
------------------------------------------------------------------------------

Gradient of the Kohn-Sham DFT energy:
Kohn-Sham wavefunction type      ... RKS
Hartree-Fock exchange scaling    ...    0.200
Number of operators              ...    1
Number of atoms                  ...    2
Basis set dimensions             ...   10
Integral neglect threshold       ... 2.5e-11
Integral primitive cutoff        ... 2.5e-12

Nuclear repulsion gradient       ... done
One Electron Gradient            ... done
Pre-screening matrix             ... done
Starting the two electron gradient:
Two electron gradient done
Exchange-correlation gradient    ... done
Dispersion correction            ... done

------------------
CARTESIAN GRADIENT
------------------

   1   H   :   -0.036070308   -0.004518974    0.000000000
   2   H   :    0.036070308    0.004518974   -0.000000000

Difference to translation invariance:
           :    0.0000000000   -0.0000000000    0.0000000000

Norm of the cartesian gradient     ...    0.0514098874
RMS gradient                       ...    0.0209879986
MAX gradient                       ...    0.0360703082

-------
TIMINGS
-------

Total SCF gradient time            ...        0.132 sec

One electron gradient       ....       0.000 sec  (  0.1%)
Prescreening matrices       ....       0.000 sec  (  0.0%)
Two electron gradient       ....       0.000 sec  (  0.3%)
XC gradient                 ....       0.014 sec  ( 10.8%)
------------------------------------------------------------------------------
                         ORCA GEOMETRY RELAXATION STEP
------------------------------------------------------------------------------

Reading the OPT-File                    .... done
Getting information on internals        .... done
Copying old internal coords+grads       .... done
Making the new internal coordinates     .... (new redundants).... done
Validating the new internal coordinates .... (new redundants).... done
Calculating the B-matrix                .... done
Calculating the G,G- and P matrices     .... done
Transforming gradient to internals      .... done
Projecting the internal gradient        .... done
Number of atoms                         ....   2
Number of internal coordinates          ....   1
Current Energy                          ....    -0.956805753 Eh
Current gradient norm                   ....     0.051409887 Eh/bohr
Maximum allowed component of the step   ....  0.300
Current trust radius                    ....  0.300
Evaluating the initial hessian          ....  (Almloef) done
Projecting the Hessian                  .... done
Forming the augmented Hessian           .... done
Diagonalizing the augmented Hessian     .... done
Last element of RFO vector              ....  0.709648496
Lowest eigenvalues of augmented Hessian:
 -0.036091407
Length of the computed step             ....  0.992823773
Warning: the length of the step is outside the trust region - taking restricted step instead
The input lambda is                     ....    -0.036091
   iter:   1  x=   -0.052727  g=   53.841216 f(x)=     0.895699
   iter:   2  x=   -0.074211  g=   17.502925 f(x)=     0.376024
   iter:   3  x=   -0.097364  g=    6.331849 f(x)=     0.146604
   iter:   4  x=   -0.114368  g=    2.817780 f(x)=     0.047913
   iter:   5  x=   -0.120170  g=    1.742718 f(x)=     0.010112
   iter:   6  x=   -0.120648  g=    1.503263 f(x)=     0.000718
   iter:   7  x=   -0.120651  g=    1.485569 f(x)=     0.000004
   iter:   8  x=   -0.120651  g=    1.485464 f(x)=     0.000000
   iter:   9  x=   -0.120651  g=    1.485464 f(x)=    -0.000000
The output lambda is                    ....    -0.120651 (9 iterations)
The final length of the internal step   ....  0.300000000
Converting the step to cartesian space:
 Initial RMS(Int)=    0.3000000000
Transforming coordinates:
 Iter   0:  RMS(Cart)=    0.0866025404 RMS(Int)=    0.3000000000
 Iter   1:  RMS(Cart)=    0.0000000000 RMS(Int)=    0.0000000000
done
Storing new coordinates                 .... done

                                .--------------------.
          ----------------------|Geometry convergence|-------------------------
          Item                value                   Tolerance       Converged
          ---------------------------------------------------------------------
          RMS gradient        0.0363522790            0.0001000000      NO
          MAX gradient        0.0363522790            0.0003000000      NO
          RMS step            0.3000000000            0.0020000000      NO
          MAX step            0.3000000000            0.0040000000      NO
          ........................................................
          Max(Bonds)      0.1588      Max(Angles)    0.00
          Max(Dihed)        0.00      Max(Improp)    0.00
          ---------------------------------------------------------------------

The optimization has not yet converged - more geometry cycles are needed


    ---------------------------------------------------------------------------
                         Redundant Internal Coordinates
                            (Angstroem and degrees)

        Definition                    Value    dE/dq     Step     New-Value
    ----------------------------------------------------------------------------
     1. B(H   1,H   0)                2.4184  0.036352 -0.1588    2.2597   
    ----------------------------------------------------------------------------

         *************************************************************
         *                GEOMETRY OPTIMIZATION CYCLE   2            *
         *************************************************************
---------------------------------
CARTESIAN COORDINATES (ANGSTROEM)
---------------------------------
  H     -5.740331    1.555895    0.000000
  H     -3.498229    1.837305   -0.000000

----------------------------
CARTESIAN COORDINATES (A.U.)
----------------------------
  NO LB      ZA    FRAG     MASS         X           Y           Z
   0 H     1.0000    0     1.008  -10.847654    2.940216    0.000000
   1 H     1.0000    0     1.008   -6.610694    3.472003   -0.000000

--------------------------------
INTERNAL COORDINATES (ANGSTROEM)
--------------------------------
 H      0   0   0     0.000000000000     0.00000000     0.00000000
 H      1   0   0     2.259693764114     0.00000000     0.00000000

---------------------------
INTERNAL COORDINATES (A.U.)
---------------------------
 H      0   0   0     0.000000000000     0.00000000     0.00000000
 H      1   0   0     4.270202360705     0.00000000     0.00000000


Diagonalization of the overlap matrix:
Smallest eigenvalue                        ... 2.342e-01
Time for diagonalization                   ...    0.000 sec
Threshold for overlap eigenvalues          ... 1.000e-08
Number of eigenvalues below threshold      ... 0
Time for construction of square roots      ...    0.000 sec
Total time needed                          ...    0.000 sec

-------------------
DFT GRID GENERATION
-------------------

General Integration Accuracy     IntAcc      ...  4.340
Radial Grid Type                 RadialGrid  ... Gauss-Chebyshev
Angular Grid (max. acc.)         AngularGrid ... Lebedev-110
Angular grid pruning method      GridPruning ... 3 (G Style)
Weight generation scheme         WeightScheme... Becke
Basis function cutoff            BFCut       ...    1.0000e-11
Integration weight cutoff        WCut        ...    1.0000e-14
Grids for H and He will be reduced by one unit

# of grid points (after initial pruning)     ...   1588 (   0.0 sec)
# of grid points (after weights+screening)   ...   1584 (   0.0 sec)
nearest neighbour list constructed           ...    0.0 sec
Grid point re-assignment to atoms done       ...    0.0 sec
Grid point division into batches done        ...    0.0 sec
Reduced shell lists constructed in    0.0 sec

Total number of grid points                  ...     1584
Total number of batches                      ...       26
Average number of points per batch           ...       60
Average number of grid points per atom       ...      792
Average number of shells per batch           ...     5.74 (95.68%)
Average number of basis functions per batch  ...     9.52 (95.19%)
Average number of large shells per batch     ...     5.59 (97.42%)
Average number of large basis fcns per batch ...     9.15 (96.11%)
Maximum spatial batch extension              ...  15.20, 21.59, 21.59 au
Average spatial batch extension              ...   5.52,  8.38,  8.26 au

Time for grid setup =    0.003 sec

--------------
SCF ITERATIONS
--------------
ITER       Energy         Delta-E        Max-DP      RMS-DP      [F,P]     Damp
               ***  Starting incremental Fock matrix formation  ***
  0     -0.9679946760   0.000000000000 0.00132593  0.00029805  0.0028957 0.7000
                      *** Initiating the SOSCF procedure ***
                      *** Re-Reading the Fockian *** 
                      *** Removing any level shift *** 
ITER      Energy       Delta-E        Grad      Rot      Max-DP    RMS-DP
  1     -0.96800511  -0.0000104329  0.000808  0.000808  0.004144  0.000928
               *** Restarting incremental Fock matrix formation ***
  2     -0.96803021  -0.0000251019  0.000069  0.000093  0.000122  0.000027
  3     -0.96803023  -0.0000000169  0.000004  0.000005  0.000006  0.000001
                 **** Energy Check signals convergence ****
              ***Rediagonalizing the Fockian in SOSCF/NRSCF***

               *****************************************************
               *                     SUCCESS                       *
               *           SCF CONVERGED AFTER   4 CYCLES          *
               *****************************************************

Setting up the final grid:

General Integration Accuracy     IntAcc      ...  4.670
Radial Grid Type                 RadialGrid  ... Gauss-Chebyshev
Angular Grid (max. acc.)         AngularGrid ... Lebedev-302
Angular grid pruning method      GridPruning ... 3 (G Style)
Weight generation scheme         WeightScheme... Becke
Basis function cutoff            BFCut       ...    1.0000e-11
Integration weight cutoff        WCut        ...    1.0000e-14
Grids for H and He will be reduced by one unit

# of grid points (after initial pruning)     ...   6788 (   0.0 sec)
# of grid points (after weights+screening)   ...   6784 (   0.0 sec)
nearest neighbour list constructed           ...    0.0 sec
Grid point re-assignment to atoms done       ...    0.0 sec
Grid point division into batches done        ...    0.0 sec
Reduced shell lists constructed in    0.0 sec

Total number of grid points                  ...     6784
Total number of batches                      ...      108
Average number of points per batch           ...       62
Average number of grid points per atom       ...     3392
Average number of shells per batch           ...     5.56 (92.66%)
Average number of basis functions per batch  ...     9.03 (90.28%)
Average number of large shells per batch     ...     5.21 (93.73%)
Average number of large basis fcns per batch ...     8.26 (91.46%)
Maximum spatial batch extension              ...  13.75, 15.43, 17.51 au
Average spatial batch extension              ...   3.82,  4.10,  4.09 au

Final grid set up in    0.0 sec
Final integration                            ... done (   0.0 sec)
Change in XC energy                          ...    -0.000311134
Integrated number of electrons               ...     2.000003267
Previous integrated no of electrons          ...     2.000082482
Total Energy       :           -0.96834136 Eh             -26.34991 eV
  Last Energy change         ...   -4.2007e-11  Tolerance :   1.0000e-08
  Last MAX-Density change    ...    1.4505e-08  Tolerance :   1.0000e-07
             **** THE GBW FILE WAS UPDATED (optimisationDFTB3D3hydrogen.gbw) ****
             **** DENSITY FILE WAS UPDATED (optimisationDFTB3D3hydrogen.scfp) ****
             **** ENERGY FILE WAS UPDATED (optimisationDFTB3D3hydrogen.en.tmp) ****
             **** THE GBW FILE WAS UPDATED (optimisationDFTB3D3hydrogen.gbw) ****
             **** DENSITY FILE WAS UPDATED (optimisationDFTB3D3hydrogen.scfp) ****
Total SCF time: 0 days 0 hours 0 min 0 sec 


-------------------------------------------------------------------------------
                          DFT DISPERSION CORRECTION                            
                                                                               
                              DFTD3 V3.1  Rev 1                                
                          USING Becke-Johnson damping                          
-------------------------------------------------------------------------------
-------------------------   ----------------
Dispersion correction           -0.000293735
-------------------------   ----------------


-------------------------   --------------------
FINAL SINGLE POINT ENERGY        -0.968635097609
-------------------------   --------------------

------------------------------------------------------------------------------
                         ORCA SCF GRADIENT CALCULATION
------------------------------------------------------------------------------

Gradient of the Kohn-Sham DFT energy:
Kohn-Sham wavefunction type      ... RKS
Hartree-Fock exchange scaling    ...    0.200
Number of operators              ...    1
Number of atoms                  ...    2
Basis set dimensions             ...   10
Integral neglect threshold       ... 2.5e-11
Integral primitive cutoff        ... 2.5e-12

Nuclear repulsion gradient       ... done
One Electron Gradient            ... done
Pre-screening matrix             ... done
Starting the two electron gradient:
Two electron gradient done
Exchange-correlation gradient    ... done
Dispersion correction            ... done

------------------
CARTESIAN GRADIENT
------------------

   1   H   :   -0.042400014   -0.005313988   -0.000000000
   2   H   :    0.042400014    0.005313988    0.000000000

Difference to translation invariance:
           :    0.0000000000    0.0000000000   -0.0000000000

Norm of the cartesian gradient     ...    0.0604317742
RMS gradient                       ...    0.0246711685
MAX gradient                       ...    0.0424000141

-------
TIMINGS
-------

Total SCF gradient time            ...        0.128 sec

One electron gradient       ....       0.000 sec  (  0.1%)
Prescreening matrices       ....       0.000 sec  (  0.0%)
Two electron gradient       ....       0.000 sec  (  0.3%)
XC gradient                 ....       0.014 sec  ( 11.1%)
------------------------------------------------------------------------------
                         ORCA GEOMETRY RELAXATION STEP
------------------------------------------------------------------------------

Reading the OPT-File                    .... done
Getting information on internals        .... done
Copying old internal coords+grads       .... done
Making the new internal coordinates     .... (new redundants).... done
Validating the new internal coordinates .... (new redundants).... done
Calculating the B-matrix                .... done
Calculating the G,G- and P matrices     .... done
Transforming gradient to internals      .... done
Projecting the internal gradient        .... done
Number of atoms                         ....   2
Number of internal coordinates          ....   1
Current Energy                          ....    -0.968635098 Eh
Current gradient norm                   ....     0.060431774 Eh/bohr
Maximum allowed component of the step   ....  0.300
Current trust radius                    ....  0.300
Updating the Hessian (BFGS)             .... done
Forming the augmented Hessian           .... done
Diagonalizing the augmented Hessian     .... done
Last element of RFO vector              ....  0.615850874
Lowest eigenvalues of augmented Hessian:
 -0.054667013
Length of the computed step             ....  1.279307663
Warning: the length of the step is outside the trust region - taking restricted step instead
The input lambda is                     ....    -0.054667
   iter:   1  x=   -0.070450  g=   97.995168 f(x)=     1.546628
   iter:   2  x=   -0.092110  g=   30.692680 f(x)=     0.664808
   iter:   3  x=   -0.118770  g=   10.270736 f(x)=     0.273816
   iter:   4  x=   -0.144677  g=    3.939598 f(x)=     0.102065
   iter:   5  x=   -0.160061  g=    1.942921 f(x)=     0.029890
   iter:   6  x=   -0.163565  g=    1.365826 f(x)=     0.004786
   iter:   7  x=   -0.163704  g=    1.267393 f(x)=     0.000175
   iter:   8  x=   -0.163704  g=    1.263704 f(x)=     0.000000
   iter:   9  x=   -0.163704  g=    1.263698 f(x)=     0.000000
   iter:  10  x=   -0.163704  g=    1.263698 f(x)=     0.000000
The output lambda is                    ....    -0.163704 (10 iterations)
The final length of the internal step   ....  0.300000000
Converting the step to cartesian space:
 Initial RMS(Int)=    0.3000000000
Transforming coordinates:
 Iter   0:  RMS(Cart)=    0.0866025404 RMS(Int)=    0.3000000000
 Iter   1:  RMS(Cart)=    0.0000000000 RMS(Int)=    0.0000000000
done
Storing new coordinates                 .... done

                                .--------------------.
          ----------------------|Geometry convergence|-------------------------
          Item                value                   Tolerance       Converged
          ---------------------------------------------------------------------
          Energy change      -0.0118293443            0.0000050000      NO
          RMS gradient        0.0427317167            0.0001000000      NO
          MAX gradient        0.0427317167            0.0003000000      NO
          RMS step            0.3000000000            0.0020000000      NO
          MAX step            0.3000000000            0.0040000000      NO
          ........................................................
          Max(Bonds)      0.1588      Max(Angles)    0.00
          Max(Dihed)        0.00      Max(Improp)    0.00
          ---------------------------------------------------------------------

The optimization has not yet converged - more geometry cycles are needed


    ---------------------------------------------------------------------------
                         Redundant Internal Coordinates
                            (Angstroem and degrees)

        Definition                    Value    dE/dq     Step     New-Value
    ----------------------------------------------------------------------------
     1. B(H   1,H   0)                2.2597  0.042732 -0.1588    2.1009   
    ----------------------------------------------------------------------------

         *************************************************************
         *                GEOMETRY OPTIMIZATION CYCLE   3            *
         *************************************************************
---------------------------------
CARTESIAN COORDINATES (ANGSTROEM)
---------------------------------
  H     -5.661573    1.565780    0.000000
  H     -3.576987    1.827420   -0.000000

----------------------------
CARTESIAN COORDINATES (A.U.)
----------------------------
  NO LB      ZA    FRAG     MASS         X           Y           Z
   0 H     1.0000    0     1.008  -10.698822    2.958896    0.000000
   1 H     1.0000    0     1.008   -6.759526    3.453323   -0.000000

--------------------------------
INTERNAL COORDINATES (ANGSTROEM)
--------------------------------
 H      0   0   0     0.000000000000     0.00000000     0.00000000
 H      1   0   0     2.100940601624     0.00000000     0.00000000

---------------------------
INTERNAL COORDINATES (A.U.)
---------------------------
 H      0   0   0     0.000000000000     0.00000000     0.00000000
 H      1   0   0     3.970202360705     0.00000000     0.00000000


Diagonalization of the overlap matrix:
Smallest eigenvalue                        ... 2.248e-01
Time for diagonalization                   ...    0.000 sec
Threshold for overlap eigenvalues          ... 1.000e-08
Number of eigenvalues below threshold      ... 0
Time for construction of square roots      ...    0.000 sec
Total time needed                          ...    0.000 sec

-------------------
DFT GRID GENERATION
-------------------

General Integration Accuracy     IntAcc      ...  4.340
Radial Grid Type                 RadialGrid  ... Gauss-Chebyshev
Angular Grid (max. acc.)         AngularGrid ... Lebedev-110
Angular grid pruning method      GridPruning ... 3 (G Style)
Weight generation scheme         WeightScheme... Becke
Basis function cutoff            BFCut       ...    1.0000e-11
Integration weight cutoff        WCut        ...    1.0000e-14
Grids for H and He will be reduced by one unit

# of grid points (after initial pruning)     ...   1588 (   0.0 sec)
# of grid points (after weights+screening)   ...   1584 (   0.0 sec)
nearest neighbour list constructed           ...    0.0 sec
Grid point re-assignment to atoms done       ...    0.0 sec
Grid point division into batches done        ...    0.0 sec
Reduced shell lists constructed in    0.0 sec

Total number of grid points                  ...     1584
Total number of batches                      ...       26
Average number of points per batch           ...       60
Average number of grid points per atom       ...      792
Average number of shells per batch           ...     5.74 (95.68%)
Average number of basis functions per batch  ...     9.52 (95.19%)
Average number of large shells per batch     ...     5.63 (98.06%)
Average number of large basis fcns per batch ...     9.26 (97.28%)
Maximum spatial batch extension              ...  15.17, 21.59, 21.59 au
Average spatial batch extension              ...   5.45,  8.33,  8.16 au

Time for grid setup =    0.003 sec

--------------
SCF ITERATIONS
--------------
ITER       Energy         Delta-E        Max-DP      RMS-DP      [F,P]     Damp
               ***  Starting incremental Fock matrix formation  ***
  0     -0.9817780798   0.000000000000 0.00173398  0.00038467  0.0038534 0.7000
                      *** Initiating the SOSCF procedure ***
                      *** Re-Reading the Fockian *** 
                      *** Removing any level shift *** 
ITER      Energy       Delta-E        Grad      Rot      Max-DP    RMS-DP
  1     -0.98179609  -0.0000180084  0.001054  0.001054  0.005400  0.001192
               *** Restarting incremental Fock matrix formation ***
  2     -0.98183934  -0.0000432518  0.000094  0.000123  0.000161  0.000035
  3     -0.98183937  -0.0000000255  0.000005  0.000006  0.000008  0.000002
                 **** Energy Check signals convergence ****
              ***Rediagonalizing the Fockian in SOSCF/NRSCF***

               *****************************************************
               *                     SUCCESS                       *
               *           SCF CONVERGED AFTER   4 CYCLES          *
               *****************************************************

Setting up the final grid:

General Integration Accuracy     IntAcc      ...  4.670
Radial Grid Type                 RadialGrid  ... Gauss-Chebyshev
Angular Grid (max. acc.)         AngularGrid ... Lebedev-302
Angular grid pruning method      GridPruning ... 3 (G Style)
Weight generation scheme         WeightScheme... Becke
Basis function cutoff            BFCut       ...    1.0000e-11
Integration weight cutoff        WCut        ...    1.0000e-14
Grids for H and He will be reduced by one unit

# of grid points (after initial pruning)     ...   6788 (   0.0 sec)
# of grid points (after weights+screening)   ...   6782 (   0.0 sec)
nearest neighbour list constructed           ...    0.0 sec
Grid point re-assignment to atoms done       ...    0.0 sec
Grid point division into batches done        ...    0.0 sec
Reduced shell lists constructed in    0.0 sec

Total number of grid points                  ...     6782
Total number of batches                      ...      106
Average number of points per batch           ...       63
Average number of grid points per atom       ...     3391
Average number of shells per batch           ...     5.51 (91.90%)
Average number of basis functions per batch  ...     8.93 (89.35%)
Average number of large shells per batch     ...     5.25 (95.25%)
Average number of large basis fcns per batch ...     8.41 (94.14%)
Maximum spatial batch extension              ...  13.75, 15.43, 15.43 au
Average spatial batch extension              ...   3.76,  4.04,  3.84 au

Final grid set up in    0.0 sec
Final integration                            ... done (   0.0 sec)
Change in XC energy                          ...    -0.000370014
Integrated number of electrons               ...     2.000002596
Previous integrated no of electrons          ...     2.000158889
Total Energy       :           -0.98220938 Eh             -26.72728 eV
  Last Energy change         ...   -6.0996e-11  Tolerance :   1.0000e-08
  Last MAX-Density change    ...    1.4114e-08  Tolerance :   1.0000e-07
             **** THE GBW FILE WAS UPDATED (optimisationDFTB3D3hydrogen.gbw) ****
             **** DENSITY FILE WAS UPDATED (optimisationDFTB3D3hydrogen.scfp) ****
             **** ENERGY FILE WAS UPDATED (optimisationDFTB3D3hydrogen.en.tmp) ****
             **** THE GBW FILE WAS UPDATED (optimisationDFTB3D3hydrogen.gbw) ****
             **** DENSITY FILE WAS UPDATED (optimisationDFTB3D3hydrogen.scfp) ****
Total SCF time: 0 days 0 hours 0 min 0 sec 


-------------------------------------------------------------------------------
                          DFT DISPERSION CORRECTION                            
                                                                               
                              DFTD3 V3.1  Rev 1                                
                          USING Becke-Johnson damping                          
-------------------------------------------------------------------------------
-------------------------   ----------------
Dispersion correction           -0.000306806
-------------------------   ----------------


-------------------------   --------------------
FINAL SINGLE POINT ENERGY        -0.982516185257
-------------------------   --------------------

------------------------------------------------------------------------------
                         ORCA SCF GRADIENT CALCULATION
------------------------------------------------------------------------------

Gradient of the Kohn-Sham DFT energy:
Kohn-Sham wavefunction type      ... RKS
Hartree-Fock exchange scaling    ...    0.200
Number of operators              ...    1
Number of atoms                  ...    2
Basis set dimensions             ...   10
Integral neglect threshold       ... 2.5e-11
Integral primitive cutoff        ... 2.5e-12

Nuclear repulsion gradient       ... done
One Electron Gradient            ... done
Pre-screening matrix             ... done
Starting the two electron gradient:
Two electron gradient done
Exchange-correlation gradient    ... done
Dispersion correction            ... done

------------------
CARTESIAN GRADIENT
------------------

   1   H   :   -0.049595842   -0.006219841    0.000000000
   2   H   :    0.049595842    0.006219841   -0.000000000

Difference to translation invariance:
           :    0.0000000000   -0.0000000000   -0.0000000000

Norm of the cartesian gradient     ...    0.0706885269
RMS gradient                       ...    0.0288584703
MAX gradient                       ...    0.0495958416

-------
TIMINGS
-------

Total SCF gradient time            ...        0.130 sec

One electron gradient       ....       0.000 sec  (  0.1%)
Prescreening matrices       ....       0.000 sec  (  0.0%)
Two electron gradient       ....       0.000 sec  (  0.3%)
XC gradient                 ....       0.015 sec  ( 11.3%)
------------------------------------------------------------------------------
                         ORCA GEOMETRY RELAXATION STEP
------------------------------------------------------------------------------

Reading the OPT-File                    .... done
Getting information on internals        .... done
Copying old internal coords+grads       .... done
Making the new internal coordinates     .... (new redundants).... done
Validating the new internal coordinates .... (new redundants).... done
Calculating the B-matrix                .... done
Calculating the G,G- and P matrices     .... done
Transforming gradient to internals      .... done
Projecting the internal gradient        .... done
Number of atoms                         ....   2
Number of internal coordinates          ....   1
Current Energy                          ....    -0.982516185 Eh
Current gradient norm                   ....     0.070688527 Eh/bohr
Maximum allowed component of the step   ....  0.300
Current trust radius                    ....  0.300
Updating the Hessian (BFGS)             .... done
Forming the augmented Hessian           .... done
Diagonalizing the augmented Hessian     .... done
Last element of RFO vector              ....  0.618443923
Lowest eigenvalues of augmented Hessian:
 -0.063512853
Length of the computed step             ....  1.270655116
Warning: the length of the step is outside the trust region - taking restricted step instead
The input lambda is                     ....    -0.063513
   iter:   1  x=   -0.082085  g=   82.087898 f(x)=     1.524564
   iter:   2  x=   -0.107542  g=   25.730119 f(x)=     0.655013
   iter:   3  x=   -0.138790  g=    8.624179 f(x)=     0.269485
   iter:   4  x=   -0.168979  g=    3.318786 f(x)=     0.100190
   iter:   5  x=   -0.186694  g=    1.645742 f(x)=     0.029154
   iter:   6  x=   -0.190640  g=    1.164098 f(x)=     0.004594
   iter:   7  x=   -0.190790  g=    1.083258 f(x)=     0.000162
   iter:   8  x=   -0.190790  g=    1.080342 f(x)=     0.000000
   iter:   9  x=   -0.190790  g=    1.080338 f(x)=     0.000000
   iter:  10  x=   -0.190790  g=    1.080338 f(x)=    -0.000000
The output lambda is                    ....    -0.190790 (10 iterations)
The final length of the internal step   ....  0.300000000
Converting the step to cartesian space:
 Initial RMS(Int)=    0.3000000000
Transforming coordinates:
 Iter   0:  RMS(Cart)=    0.0866025404 RMS(Int)=    0.3000000000
 Iter   1:  RMS(Cart)=    0.0000000000 RMS(Int)=    0.0000000000
done
Storing new coordinates                 .... done

                                .--------------------.
          ----------------------|Geometry convergence|-------------------------
          Item                value                   Tolerance       Converged
          ---------------------------------------------------------------------
          Energy change      -0.0138810876            0.0000050000      NO
          RMS gradient        0.0499843365            0.0001000000      NO
          MAX gradient        0.0499843365            0.0003000000      NO
          RMS step            0.3000000000            0.0020000000      NO
          MAX step            0.3000000000            0.0040000000      NO
          ........................................................
          Max(Bonds)      0.1588      Max(Angles)    0.00
          Max(Dihed)        0.00      Max(Improp)    0.00
          ---------------------------------------------------------------------

The optimization has not yet converged - more geometry cycles are needed


    ---------------------------------------------------------------------------
                         Redundant Internal Coordinates
                            (Angstroem and degrees)

        Definition                    Value    dE/dq     Step     New-Value
    ----------------------------------------------------------------------------
     1. B(H   1,H   0)                2.1009  0.049984 -0.1588    1.9422   
    ----------------------------------------------------------------------------

         *************************************************************
         *                GEOMETRY OPTIMIZATION CYCLE   4            *
         *************************************************************
---------------------------------
CARTESIAN COORDINATES (ANGSTROEM)
---------------------------------
  H     -5.582814    1.575665    0.000000
  H     -3.655746    1.817535   -0.000000

----------------------------
CARTESIAN COORDINATES (A.U.)
----------------------------
  NO LB      ZA    FRAG     MASS         X           Y           Z
   0 H     1.0000    0     1.008  -10.549990    2.977576    0.000000
   1 H     1.0000    0     1.008   -6.908359    3.434643   -0.000000

--------------------------------
INTERNAL COORDINATES (ANGSTROEM)
--------------------------------
 H      0   0   0     0.000000000000     0.00000000     0.00000000
 H      1   0   0     1.942187439134     0.00000000     0.00000000

---------------------------
INTERNAL COORDINATES (A.U.)
---------------------------
 H      0   0   0     0.000000000000     0.00000000     0.00000000
 H      1   0   0     3.670202360705     0.00000000     0.00000000


Diagonalization of the overlap matrix:
Smallest eigenvalue                        ... 2.144e-01
Time for diagonalization                   ...    0.000 sec
Threshold for overlap eigenvalues          ... 1.000e-08
Number of eigenvalues below threshold      ... 0
Time for construction of square roots      ...    0.000 sec
Total time needed                          ...    0.000 sec

-------------------
DFT GRID GENERATION
-------------------

General Integration Accuracy     IntAcc      ...  4.340
Radial Grid Type                 RadialGrid  ... Gauss-Chebyshev
Angular Grid (max. acc.)         AngularGrid ... Lebedev-110
Angular grid pruning method      GridPruning ... 3 (G Style)
Weight generation scheme         WeightScheme... Becke
Basis function cutoff            BFCut       ...    1.0000e-11
Integration weight cutoff        WCut        ...    1.0000e-14
Grids for H and He will be reduced by one unit

# of grid points (after initial pruning)     ...   1588 (   0.0 sec)
# of grid points (after weights+screening)   ...   1582 (   0.0 sec)
nearest neighbour list constructed           ...    0.0 sec
Grid point re-assignment to atoms done       ...    0.0 sec
Grid point division into batches done        ...    0.0 sec
Reduced shell lists constructed in    0.0 sec

Total number of grid points                  ...     1582
Total number of batches                      ...       26
Average number of points per batch           ...       60
Average number of grid points per atom       ...      791
Average number of shells per batch           ...     5.74 (95.68%)
Average number of basis functions per batch  ...     9.52 (95.19%)
Average number of large shells per batch     ...     5.70 (99.35%)
Average number of large basis fcns per batch ...     9.48 (99.61%)
Maximum spatial batch extension              ...  15.10, 21.59, 21.59 au
Average spatial batch extension              ...   6.27,  8.09,  7.72 au

Time for grid setup =    0.003 sec

--------------
SCF ITERATIONS
--------------
ITER       Energy         Delta-E        Max-DP      RMS-DP      [F,P]     Damp
               ***  Starting incremental Fock matrix formation  ***
  0     -0.9979843045   0.000000000000 0.00230191  0.00050307  0.0052041 0.7000
                      *** Initiating the SOSCF procedure ***
                      *** Re-Reading the Fockian *** 
                      *** Removing any level shift *** 
ITER      Energy       Delta-E        Grad      Rot      Max-DP    RMS-DP
  1     -0.99801607  -0.0000317670  0.001400  0.001400  0.007144  0.001553
               *** Restarting incremental Fock matrix formation ***
  2     -0.99809192  -0.0000758506  0.000115  0.000147  0.000191  0.000041
  3     -0.99809196  -0.0000000328  0.000005  0.000007  0.000009  0.000002
                 **** Energy Check signals convergence ****
              ***Rediagonalizing the Fockian in SOSCF/NRSCF***

               *****************************************************
               *                     SUCCESS                       *
               *           SCF CONVERGED AFTER   4 CYCLES          *
               *****************************************************

Setting up the final grid:

General Integration Accuracy     IntAcc      ...  4.670
Radial Grid Type                 RadialGrid  ... Gauss-Chebyshev
Angular Grid (max. acc.)         AngularGrid ... Lebedev-302
Angular grid pruning method      GridPruning ... 3 (G Style)
Weight generation scheme         WeightScheme... Becke
Basis function cutoff            BFCut       ...    1.0000e-11
Integration weight cutoff        WCut        ...    1.0000e-14
Grids for H and He will be reduced by one unit

# of grid points (after initial pruning)     ...   6788 (   0.0 sec)
# of grid points (after weights+screening)   ...   6782 (   0.0 sec)
nearest neighbour list constructed           ...    0.0 sec
Grid point re-assignment to atoms done       ...    0.0 sec
Grid point division into batches done        ...    0.0 sec
Reduced shell lists constructed in    0.0 sec

Total number of grid points                  ...     6782
Total number of batches                      ...      106
Average number of points per batch           ...       63
Average number of grid points per atom       ...     3391
Average number of shells per batch           ...     5.55 (92.52%)
Average number of basis functions per batch  ...     9.01 (90.09%)
Average number of large shells per batch     ...     5.27 (94.95%)
Average number of large basis fcns per batch ...     8.45 (93.78%)
Maximum spatial batch extension              ...  13.75, 15.43, 15.43 au
Average spatial batch extension              ...   3.63,  4.02,  3.84 au

Final grid set up in    0.0 sec
Final integration                            ... done (   0.0 sec)
Change in XC energy                          ...    -0.000316247
Integrated number of electrons               ...     2.000001125
Previous integrated no of electrons          ...     2.000493007
Total Energy       :           -0.99840820 Eh             -27.16807 eV
  Last Energy change         ...   -7.8447e-11  Tolerance :   1.0000e-08
  Last MAX-Density change    ...    2.7443e-08  Tolerance :   1.0000e-07
             **** THE GBW FILE WAS UPDATED (optimisationDFTB3D3hydrogen.gbw) ****
             **** DENSITY FILE WAS UPDATED (optimisationDFTB3D3hydrogen.scfp) ****
             **** ENERGY FILE WAS UPDATED (optimisationDFTB3D3hydrogen.en.tmp) ****
             **** THE GBW FILE WAS UPDATED (optimisationDFTB3D3hydrogen.gbw) ****
             **** DENSITY FILE WAS UPDATED (optimisationDFTB3D3hydrogen.scfp) ****
Total SCF time: 0 days 0 hours 0 min 0 sec 


-------------------------------------------------------------------------------
                          DFT DISPERSION CORRECTION                            
                                                                               
                              DFTD3 V3.1  Rev 1                                
                          USING Becke-Johnson damping                          
-------------------------------------------------------------------------------
-------------------------   ----------------
Dispersion correction           -0.000316004
-------------------------   ----------------


-------------------------   --------------------
FINAL SINGLE POINT ENERGY        -0.998724206321
-------------------------   --------------------

------------------------------------------------------------------------------
                         ORCA SCF GRADIENT CALCULATION
------------------------------------------------------------------------------

Gradient of the Kohn-Sham DFT energy:
Kohn-Sham wavefunction type      ... RKS
Hartree-Fock exchange scaling    ...    0.200
Number of operators              ...    1
Number of atoms                  ...    2
Basis set dimensions             ...   10
Integral neglect threshold       ... 2.5e-11
Integral primitive cutoff        ... 2.5e-12

Nuclear repulsion gradient       ... done
One Electron Gradient            ... done
Pre-screening matrix             ... done
Starting the two electron gradient:
Two electron gradient done
Exchange-correlation gradient    ... done
Dispersion correction            ... done

------------------
CARTESIAN GRADIENT
------------------

   1   H   :   -0.057662578   -0.007240050   -0.000000000
   2   H   :    0.057662578    0.007240050    0.000000000

Difference to translation invariance:
           :   -0.0000000000    0.0000000000   -0.0000000000

Norm of the cartesian gradient     ...    0.0821874840
RMS gradient                       ...    0.0335528999
MAX gradient                       ...    0.0576625784

-------
TIMINGS
-------

Total SCF gradient time            ...        0.129 sec

One electron gradient       ....       0.000 sec  (  0.1%)
Prescreening matrices       ....       0.000 sec  (  0.0%)
Two electron gradient       ....       0.000 sec  (  0.3%)
XC gradient                 ....       0.015 sec  ( 11.6%)
------------------------------------------------------------------------------
                         ORCA GEOMETRY RELAXATION STEP
------------------------------------------------------------------------------

Reading the OPT-File                    .... done
Getting information on internals        .... done
Copying old internal coords+grads       .... done
Making the new internal coordinates     .... (new redundants).... done
Validating the new internal coordinates .... (new redundants).... done
Calculating the B-matrix                .... done
Calculating the G,G- and P matrices     .... done
Transforming gradient to internals      .... done
Projecting the internal gradient        .... done
Number of atoms                         ....   2
Number of internal coordinates          ....   1
Current Energy                          ....    -0.998724206 Eh
Current gradient norm                   ....     0.082187484 Eh/bohr
Maximum allowed component of the step   ....  0.300
Current trust radius                    ....  0.300
Updating the Hessian (BFGS)             .... done
Forming the augmented Hessian           .... done
Diagonalizing the augmented Hessian     .... done
Last element of RFO vector              ....  0.621653815
Lowest eigenvalues of augmented Hessian:
 -0.073226089
Length of the computed step             ....  1.260013363
Warning: the length of the step is outside the trust region - taking restricted step instead
The input lambda is                     ....    -0.073226
   iter:   1  x=   -0.094980  g=   68.843788 f(x)=     1.497634
   iter:   2  x=   -0.124752  g=   21.599610 f(x)=     0.643057
   iter:   3  x=   -0.161170  g=    7.254605 f(x)=     0.264201
   iter:   4  x=   -0.196097  g=    2.803150 f(x)=     0.097905
   iter:   5  x=   -0.216289  g=    1.399588 f(x)=     0.028261
   iter:   6  x=   -0.220663  g=    0.997575 f(x)=     0.004364
   iter:   7  x=   -0.220821  g=    0.931461 f(x)=     0.000147
   iter:   8  x=   -0.220821  g=    0.929190 f(x)=     0.000000
   iter:   9  x=   -0.220821  g=    0.929187 f(x)=     0.000000
   iter:  10  x=   -0.220821  g=    0.929187 f(x)=     0.000000
The output lambda is                    ....    -0.220821 (10 iterations)
The final length of the internal step   ....  0.300000000
Converting the step to cartesian space:
 Initial RMS(Int)=    0.3000000000
Transforming coordinates:
 Iter   0:  RMS(Cart)=    0.0866025404 RMS(Int)=    0.3000000000
 Iter   1:  RMS(Cart)=    0.0000000000 RMS(Int)=    0.0000000000
done
Storing new coordinates                 .... done

                                .--------------------.
          ----------------------|Geometry convergence|-------------------------
          Item                value                   Tolerance       Converged
          ---------------------------------------------------------------------
          Energy change      -0.0162080211            0.0000050000      NO
          RMS gradient        0.0581153272            0.0001000000      NO
          MAX gradient        0.0581153272            0.0003000000      NO
          RMS step            0.3000000000            0.0020000000      NO
          MAX step            0.3000000000            0.0040000000      NO
          ........................................................
          Max(Bonds)      0.1588      Max(Angles)    0.00
          Max(Dihed)        0.00      Max(Improp)    0.00
          ---------------------------------------------------------------------

The optimization has not yet converged - more geometry cycles are needed


    ---------------------------------------------------------------------------
                         Redundant Internal Coordinates
                            (Angstroem and degrees)

        Definition                    Value    dE/dq     Step     New-Value
    ----------------------------------------------------------------------------
     1. B(H   1,H   0)                1.9422  0.058115 -0.1588    1.7834   
    ----------------------------------------------------------------------------

         *************************************************************
         *                GEOMETRY OPTIMIZATION CYCLE   5            *
         *************************************************************
---------------------------------
CARTESIAN COORDINATES (ANGSTROEM)
---------------------------------
  H     -5.504055    1.585550    0.000000
  H     -3.734505    1.807650   -0.000000

----------------------------
CARTESIAN COORDINATES (A.U.)
----------------------------
  NO LB      ZA    FRAG     MASS         X           Y           Z
   0 H     1.0000    0     1.008  -10.401157    2.996256    0.000000
   1 H     1.0000    0     1.008   -7.057191    3.415963   -0.000000

--------------------------------
INTERNAL COORDINATES (ANGSTROEM)
--------------------------------
 H      0   0   0     0.000000000000     0.00000000     0.00000000
 H      1   0   0     1.783434276644     0.00000000     0.00000000

---------------------------
INTERNAL COORDINATES (A.U.)
---------------------------
 H      0   0   0     0.000000000000     0.00000000     0.00000000
 H      1   0   0     3.370202360705     0.00000000     0.00000000


Diagonalization of the overlap matrix:
Smallest eigenvalue                        ... 2.026e-01
Time for diagonalization                   ...    0.000 sec
Threshold for overlap eigenvalues          ... 1.000e-08
Number of eigenvalues below threshold      ... 0
Time for construction of square roots      ...    0.000 sec
Total time needed                          ...    0.000 sec

-------------------
DFT GRID GENERATION
-------------------

General Integration Accuracy     IntAcc      ...  4.340
Radial Grid Type                 RadialGrid  ... Gauss-Chebyshev
Angular Grid (max. acc.)         AngularGrid ... Lebedev-110
Angular grid pruning method      GridPruning ... 3 (G Style)
Weight generation scheme         WeightScheme... Becke
Basis function cutoff            BFCut       ...    1.0000e-11
Integration weight cutoff        WCut        ...    1.0000e-14
Grids for H and He will be reduced by one unit

# of grid points (after initial pruning)     ...   1588 (   0.0 sec)
# of grid points (after weights+screening)   ...   1582 (   0.0 sec)
nearest neighbour list constructed           ...    0.0 sec
Grid point re-assignment to atoms done       ...    0.0 sec
Grid point division into batches done        ...    0.0 sec
Reduced shell lists constructed in    0.0 sec

Total number of grid points                  ...     1582
Total number of batches                      ...       26
Average number of points per batch           ...       60
Average number of grid points per atom       ...      791
Average number of shells per batch           ...     5.74 (95.68%)
Average number of basis functions per batch  ...     9.52 (95.19%)
Average number of large shells per batch     ...     5.70 (99.35%)
Average number of large basis fcns per batch ...     9.48 (99.61%)
Maximum spatial batch extension              ...  15.26, 21.59, 21.59 au
Average spatial batch extension              ...   6.33,  7.94,  7.68 au

Time for grid setup =    0.003 sec

--------------
SCF ITERATIONS
--------------
ITER       Energy         Delta-E        Max-DP      RMS-DP      [F,P]     Damp
               ***  Starting incremental Fock matrix formation  ***
  0     -1.0169275621   0.000000000000 0.00307695  0.00066084  0.0070976 0.7000
                      *** Initiating the SOSCF procedure ***
                      *** Re-Reading the Fockian *** 
                      *** Removing any level shift *** 
ITER      Energy       Delta-E        Grad      Rot      Max-DP    RMS-DP
  1     -1.01698391  -0.0000563451  0.001879  0.001879  0.009525  0.002035
               *** Restarting incremental Fock matrix formation ***
  2     -1.01711698  -0.0001330699  0.000109  0.000137  0.000182  0.000038
  3     -1.01711702  -0.0000000445  0.000004  0.000004  0.000005  0.000001
                 **** Energy Check signals convergence ****
              ***Rediagonalizing the Fockian in SOSCF/NRSCF***

               *****************************************************
               *                     SUCCESS                       *
               *           SCF CONVERGED AFTER   4 CYCLES          *
               *****************************************************

Setting up the final grid:

General Integration Accuracy     IntAcc      ...  4.670
Radial Grid Type                 RadialGrid  ... Gauss-Chebyshev
Angular Grid (max. acc.)         AngularGrid ... Lebedev-302
Angular grid pruning method      GridPruning ... 3 (G Style)
Weight generation scheme         WeightScheme... Becke
Basis function cutoff            BFCut       ...    1.0000e-11
Integration weight cutoff        WCut        ...    1.0000e-14
Grids for H and He will be reduced by one unit

# of grid points (after initial pruning)     ...   6788 (   0.0 sec)
# of grid points (after weights+screening)   ...   6780 (   0.0 sec)
nearest neighbour list constructed           ...    0.0 sec
Grid point re-assignment to atoms done       ...    0.0 sec
Grid point division into batches done        ...    0.0 sec
Reduced shell lists constructed in    0.0 sec

Total number of grid points                  ...     6780
Total number of batches                      ...      106
Average number of points per batch           ...       63
Average number of grid points per atom       ...     3390
Average number of shells per batch           ...     5.54 (92.37%)
Average number of basis functions per batch  ...     9.02 (90.19%)
Average number of large shells per batch     ...     5.33 (96.12%)
Average number of large basis fcns per batch ...     8.58 (95.13%)
Maximum spatial batch extension              ...  15.98, 15.85, 15.43 au
Average spatial batch extension              ...   3.58,  3.93,  3.74 au

Final grid set up in    0.0 sec
Final integration                            ... done (   0.0 sec)
Change in XC energy                          ...    -0.000078840
Integrated number of electrons               ...     1.999998581
Previous integrated no of electrons          ...     2.001174284
Total Energy       :           -1.01719586 Eh             -27.67931 eV
  Last Energy change         ...   -5.3594e-11  Tolerance :   1.0000e-08
  Last MAX-Density change    ...    1.2189e-07  Tolerance :   1.0000e-07
             **** THE GBW FILE WAS UPDATED (optimisationDFTB3D3hydrogen.gbw) ****
             **** DENSITY FILE WAS UPDATED (optimisationDFTB3D3hydrogen.scfp) ****
             **** ENERGY FILE WAS UPDATED (optimisationDFTB3D3hydrogen.en.tmp) ****
             **** THE GBW FILE WAS UPDATED (optimisationDFTB3D3hydrogen.gbw) ****
             **** DENSITY FILE WAS UPDATED (optimisationDFTB3D3hydrogen.scfp) ****
Total SCF time: 0 days 0 hours 0 min 0 sec 


-------------------------------------------------------------------------------
                          DFT DISPERSION CORRECTION                            
                                                                               
[...]
---------------------------------
CARTESIAN COORDINATES (ANGSTROEM)
---------------------------------
  H     -4.996854    1.649210    0.000000
  H     -4.241706    1.743990    0.000000

----------------------------
CARTESIAN COORDINATES (A.U.)
----------------------------
  NO LB      ZA    FRAG     MASS         X           Y           Z
   0 H     1.0000    0     1.008   -9.442685    3.116555    0.000000
   1 H     1.0000    0     1.008   -8.015663    3.295663    0.000000

--------------------------------
INTERNAL COORDINATES (ANGSTROEM)
--------------------------------
 H      0   0   0     0.000000000000     0.00000000     0.00000000
 H      1   0   0     0.761072209144     0.00000000     0.00000000

---------------------------
INTERNAL COORDINATES (A.U.)
---------------------------
 H      0   0   0     0.000000000000     0.00000000     0.00000000
 H      1   0   0     1.438218043420     0.00000000     0.00000000

---------------------
BASIS SET INFORMATION
---------------------
There are 1 groups of distinct atoms

 Group   1 Type H   : 4s1p contracted to 2s1p pattern {31/1}

Atom   0H    basis set group =>   1
Atom   1H    basis set group =>   1
------------------------------------------------------------------------------
                           ORCA GTO INTEGRAL CALCULATION
------------------------------------------------------------------------------

                         BASIS SET STATISTICS AND STARTUP INFO

 # of primitive gaussian shells          ...   10
 # of primitive gaussian functions       ...   14
 # of contracted shells                  ...    6
 # of contracted basis functions         ...   10
 Highest angular momentum                ...    1
 Maximum contraction depth               ...    3
 Integral package used                   ... LIBINT
 Integral threshhold            Thresh   ...  2.500e-11
 Primitive cut-off              TCut     ...  2.500e-12


------------------------------ INTEGRAL EVALUATION ----------------------------


 * One electron integrals 
 Pre-screening matrix                    ... done
 Shell pair data                         ... done (   0.000 sec)

-------------------------------------------------------------------------------
                                 ORCA SCF
-------------------------------------------------------------------------------

------------
SCF SETTINGS
------------
Hamiltonian:
 Density Functional     Method          .... DFT(GTOs)
 Exchange Functional    Exchange        .... B88
   X-Alpha parameter    XAlpha          ....  0.666667
   Becke's b parameter  XBeta           ....  0.004200
 Correlation Functional Correlation     .... LYP
 LDA part of GGA corr.  LDAOpt          .... VWN-5
 Gradients option       PostSCFGGA      .... off
 Hybrid DFT is turned on
   Fraction HF Exchange ScalHFX         ....  0.200000
   Scaling of DF-GGA-X  ScalDFX         ....  0.720000
   Scaling of DF-GGA-C  ScalDFC         ....  0.810000
   Scaling of DF-LDA-C  ScalLDAC        ....  1.000000
   Perturbative correction              ....  0.000000
   Density functional embedding theory  .... OFF
   NL short-range parameter             ....  4.800000


General Settings:
 Integral files         IntName         .... optimisationDFTB3D3hydrogen
 Hartree-Fock type      HFTyp           .... RHF
 Total Charge           Charge          ....    0
 Multiplicity           Mult            ....    1
 Number of Electrons    NEL             ....    2
 Basis Dimension        Dim             ....   10
 Nuclear Repulsion      ENuc            ....      0.6953048632 Eh

Convergence Acceleration:
 DIIS                   CNVDIIS         .... on
   Start iteration      DIISMaxIt       ....    12
   Startup error        DIISStart       ....  0.200000
   # of expansion vecs  DIISMaxEq       ....     5
   Bias factor          DIISBfac        ....   1.050
   Max. coefficient     DIISMaxC        ....  10.000
 Newton-Raphson         CNVNR           .... off
 SOSCF                  CNVSOSCF        .... on
   Start iteration      SOSCFMaxIt      ....   150
   Startup grad/error   SOSCFStart      ....  0.003300
 Level Shifting         CNVShift        .... on
   Level shift para.    LevelShift      ....    0.2500
   Turn off err/grad.   ShiftErr        ....    0.0010
 Zerner damping         CNVZerner       .... off
 Static damping         CNVDamp         .... on
   Fraction old density DampFac         ....    0.7000
   Max. Damping (<1)    DampMax         ....    0.9800
   Min. Damping (>=0)   DampMin         ....    0.0000
   Turn off err/grad.   DampErr         ....    0.1000
 Fernandez-Rico         CNVRico         .... off

SCF Procedure:
 Maximum # iterations   MaxIter         ....   125
 SCF integral mode      SCFMode         .... Direct
   Integral package                     .... LIBINT
 Reset frequency        DirectResetFreq ....    20
 Integral Threshold     Thresh          ....  2.500e-11 Eh
 Primitive CutOff       TCut            ....  2.500e-12 Eh

Convergence Tolerance:
 Convergence Check Mode ConvCheckMode   .... Total+1el-Energy
 Convergence forced     ConvForced      .... 0
 Energy Change          TolE            ....  1.000e-08 Eh
 1-El. energy change                    ....  1.000e-05 Eh
 Orbital Gradient       TolG            ....  1.000e-05
 Orbital Rotation angle TolX            ....  1.000e-05
 DIIS Error             TolErr          ....  5.000e-07


Diagonalization of the overlap matrix:
Smallest eigenvalue                        ... 5.289e-02
Time for diagonalization                   ...    0.000 sec
Threshold for overlap eigenvalues          ... 1.000e-08
Number of eigenvalues below threshold      ... 0
Time for construction of square roots      ...    0.000 sec
Total time needed                          ...    0.000 sec

---------------------
INITIAL GUESS: MOREAD
---------------------
Guess MOs are being read from file: optimisationDFTB3D3hydrogen.gbw
Input Geometry matches current geometry (good)
Input basis set matches current basis set (good)
MOs were renormalized
MOs were reorthogonalized (Cholesky)
                      ------------------
                      INITIAL GUESS DONE (   0.0 sec)
                      ------------------
-------------------
DFT GRID GENERATION
-------------------

General Integration Accuracy     IntAcc      ...  4.340
Radial Grid Type                 RadialGrid  ... Gauss-Chebyshev
Angular Grid (max. acc.)         AngularGrid ... Lebedev-110
Angular grid pruning method      GridPruning ... 3 (G Style)
Weight generation scheme         WeightScheme... Becke
Basis function cutoff            BFCut       ...    1.0000e-11
Integration weight cutoff        WCut        ...    1.0000e-14
Grids for H and He will be reduced by one unit

# of grid points (after initial pruning)     ...   1588 (   0.0 sec)
# of grid points (after weights+screening)   ...   1572 (   0.0 sec)
nearest neighbour list constructed           ...    0.0 sec
Grid point re-assignment to atoms done       ...    0.0 sec
Grid point division into batches done        ...    0.0 sec
Reduced shell lists constructed in    0.0 sec

Total number of grid points                  ...     1572
Total number of batches                      ...       26
Average number of points per batch           ...       60
Average number of grid points per atom       ...      786
Average number of shells per batch           ...     5.78 (96.30%)
Average number of basis functions per batch  ...     9.63 (96.30%)
Average number of large shells per batch     ...     5.78 (100.00%)
Average number of large basis fcns per batch ...     9.63 (100.00%)
Maximum spatial batch extension              ...  15.26, 21.76, 21.59 au
Average spatial batch extension              ...   5.69,  7.42,  7.26 au

Time for grid setup =    0.003 sec

--------------
SCF ITERATIONS
--------------
ITER       Energy         Delta-E        Max-DP      RMS-DP      [F,P]     Damp
               ***  Starting incremental Fock matrix formation  ***
                      *** Initiating the SOSCF procedure ***
                      *** Re-Reading the Fockian *** 
                      *** Removing any level shift *** 
ITER      Energy       Delta-E        Grad      Rot      Max-DP    RMS-DP
  0     -1.16680777  -1.1668077666  0.000025  0.000025  0.000025  0.000005
               *** Restarting incremental Fock matrix formation ***
                 **** Energy Check signals convergence ****
              ***Rediagonalizing the Fockian in SOSCF/NRSCF***

               *****************************************************
               *                     SUCCESS                       *
               *           SCF CONVERGED AFTER   1 CYCLES          *
               *****************************************************

Setting up the final grid:

General Integration Accuracy     IntAcc      ...  4.670
Radial Grid Type                 RadialGrid  ... Gauss-Chebyshev
Angular Grid (max. acc.)         AngularGrid ... Lebedev-302
Angular grid pruning method      GridPruning ... 3 (G Style)
Weight generation scheme         WeightScheme... Becke
Basis function cutoff            BFCut       ...    1.0000e-11
Integration weight cutoff        WCut        ...    1.0000e-14
Grids for H and He will be reduced by one unit

# of grid points (after initial pruning)     ...   6788 (   0.0 sec)
# of grid points (after weights+screening)   ...   6770 (   0.0 sec)
nearest neighbour list constructed           ...    0.0 sec
Grid point re-assignment to atoms done       ...    0.0 sec
Grid point division into batches done        ...    0.0 sec
Reduced shell lists constructed in    0.0 sec

Total number of grid points                  ...     6770
Total number of batches                      ...      106
Average number of points per batch           ...       63
Average number of grid points per atom       ...     3385
Average number of shells per batch           ...     5.56 (92.68%)
Average number of basis functions per batch  ...     9.00 (90.00%)
Average number of large shells per batch     ...     5.37 (96.64%)
Average number of large basis fcns per batch ...     8.72 (96.88%)
Maximum spatial batch extension              ...  13.36, 15.61, 15.43 au
Average spatial batch extension              ...   3.32,  3.81,  3.69 au

Final grid set up in    0.0 sec
Final integration                            ... done (   0.0 sec)
Change in XC energy                          ...    -0.000219548
Integrated number of electrons               ...     1.999999886
Previous integrated no of electrons          ...     1.999056026

----------------
TOTAL SCF ENERGY
----------------

Total Energy       :           -1.16702732 Eh             -31.75643 eV

Components:
Nuclear Repulsion  :            0.69530486 Eh              18.92021 eV
Electronic Energy  :           -1.86233218 Eh             -50.67663 eV
One Electron Energy:           -2.47653120 Eh             -67.38984 eV
Two Electron Energy:            0.61419902 Eh              16.71321 eV

Virial components:
Potential Energy   :           -2.25150813 Eh             -61.26665 eV
Kinetic Energy     :            1.08448082 Eh              29.51022 eV
Virial Ratio       :            2.07611614


DFT components:
N(Alpha)           :        0.999999942760 electrons
N(Beta)            :        0.999999942760 electrons
N(Total)           :        1.999999885520 electrons
E(X)               :       -0.511562113118 Eh       
E(C)               :       -0.048868961785 Eh       
E(XC)              :       -0.560431074903 Eh       
DFET-embed. en.    :        0.000000000000 Eh       

---------------
SCF CONVERGENCE
---------------

  Last Energy change         ...   -1.5619e-09  Tolerance :   1.0000e-08
  Last MAX-Density change    ...    3.9882e-06  Tolerance :   1.0000e-07
  Last RMS-Density change    ...    7.5218e-07  Tolerance :   5.0000e-09
  Last Orbital Gradient      ...    2.5370e-06  Tolerance :   1.0000e-05
  Last Orbital Rotation      ...    3.3508e-06  Tolerance :   1.0000e-05

             **** THE GBW FILE WAS UPDATED (optimisationDFTB3D3hydrogen.gbw) ****
             **** DENSITY FILE WAS UPDATED (optimisationDFTB3D3hydrogen.scfp) ****
             **** ENERGY FILE WAS UPDATED (optimisationDFTB3D3hydrogen.en.tmp) ****
             **** THE GBW FILE WAS UPDATED (optimisationDFTB3D3hydrogen.gbw) ****
             **** DENSITY FILE WAS UPDATED (optimisationDFTB3D3hydrogen.scfp) ****
----------------
ORBITAL ENERGIES
----------------

  NO   OCC          E(Eh)            E(eV) 
   0   2.0000      -0.422249       -11.4900 
   1   0.0000       0.074027         2.0144 
   2   0.0000       0.334890         9.1128 
   3   0.0000       0.715930        19.4814 
   4   0.0000       1.169740        31.8302 
   5   0.0000       1.169749        31.8305 
   6   0.0000       1.793480        48.8031 
   7   0.0000       1.933010        52.5999 
   8   0.0000       1.933866        52.6232 
   9   0.0000       3.342181        90.9454 

                    ********************************
                    * MULLIKEN POPULATION ANALYSIS *
                    ********************************

-----------------------
MULLIKEN ATOMIC CHARGES
-----------------------
   0 H :   -0.000000
   1 H :    0.000000
Sum of atomic charges:   -0.0000000

--------------------------------
MULLIKEN REDUCED ORBITAL CHARGES
--------------------------------
  0 H s       :     0.990916  s :     0.990916
      pz      :     0.000000  p :     0.009084
      px      :     0.008936
      py      :     0.000148
  1 H s       :     0.990916  s :     0.990916
      pz      :     0.000000  p :     0.009084
      px      :     0.008936
      py      :     0.000148


                     *******************************
                     * LOEWDIN POPULATION ANALYSIS *
                     *******************************

----------------------
LOEWDIN ATOMIC CHARGES
----------------------
   0 H :   -0.000000
   1 H :    0.000000

-------------------------------
LOEWDIN REDUCED ORBITAL CHARGES
-------------------------------
  0 H s       :     0.974040  s :     0.974040
      pz      :     0.000000  p :     0.025960
      px      :     0.025553
      py      :     0.000407
  1 H s       :     0.974040  s :     0.974040
      pz      :     0.000000  p :     0.025960
      px      :     0.025553
      py      :     0.000407


                      *****************************
                      * MAYER POPULATION ANALYSIS *
                      *****************************

  NA   - Mulliken gross atomic population
  ZA   - Total nuclear charge
  QA   - Mulliken gross atomic charge
  VA   - Mayer's total valence
  BVA  - Mayer's bonded valence
  FA   - Mayer's free valence

  ATOM       NA         ZA         QA         VA         BVA        FA
  0 H      1.0000     1.0000    -0.0000     1.0000     1.0000    -0.0000
  1 H      1.0000     1.0000     0.0000     1.0000     1.0000    -0.0000

  Mayer bond orders larger than 0.100000
B(  0-H ,  1-H ) :   1.0000 

-------
TIMINGS
-------

Total SCF time: 0 days 0 hours 0 min 0 sec 

Total time                  ....       0.300 sec
Sum of individual times     ....       0.174 sec  ( 58.2%)

Fock matrix formation       ....       0.155 sec  ( 51.7%)
  XC integration            ....       0.009 sec  (  5.5% of F)
    Basis function eval.    ....       0.002 sec  ( 19.2% of XC)
    Density eval.           ....       0.002 sec  ( 21.3% of XC)
    XC-Functional eval.     ....       0.003 sec  ( 34.9% of XC)
    XC-Potential eval.      ....       0.000 sec  (  5.7% of XC)
Diagonalization             ....       0.000 sec  (  0.0%)
Density matrix formation    ....       0.000 sec  (  0.0%)
Population analysis         ....       0.000 sec  (  0.2%)
Initial guess               ....       0.001 sec  (  0.3%)
Orbital Transformation      ....       0.000 sec  (  0.0%)
Orbital Orthonormalization  ....       0.000 sec  (  0.0%)
DIIS solution               ....       0.000 sec  (  0.0%)
SOSCF solution              ....       0.000 sec  (  0.0%)
Grid generation             ....       0.018 sec  (  6.0%)


-------------------------------------------------------------------------------
                          DFT DISPERSION CORRECTION                            
                                                                               
                              DFTD3 V3.1  Rev 1                                
                          USING Becke-Johnson damping                          
-------------------------------------------------------------------------------
The B3LYP functional is recognized
Active option DFTDOPT                   ...         4   

molecular C6(AA) [au] = 12.733914 


            DFT-D V3
 parameters
 s6 scaling factor         :     1.0000 
 a1 scaling factor         :     0.3981 
 s8 scaling factor         :     1.9889 
 a2 scaling factor         :     4.4211 
 ad hoc parameters k1-k3   :    16.0000     1.3333    -4.0000 

 Edisp/kcal,au: -0.089414617746  -0.000142491248 
 E6   /kcal   :  -0.052180345 
 E8   /kcal   :  -0.037234272 
 % E8         :  41.642265458 

-------------------------   ----------------
Dispersion correction           -0.000142491
-------------------------   ----------------


-------------------------   --------------------
FINAL SINGLE POINT ENERGY        -1.167169807141
-------------------------   --------------------

                                *** OPTIMIZATION RUN DONE ***

                            ***************************************
                            *     ORCA property calculations      *
                            ***************************************

                                    ---------------------
                                    Active property flags
                                    ---------------------
   (+) Dipole Moment


------------------------------------------------------------------------------
                       ORCA ELECTRIC PROPERTIES CALCULATION
------------------------------------------------------------------------------

Dipole Moment Calculation                       ... on
Quadrupole Moment Calculation                   ... off
Polarizability Calculation                      ... off
GBWName                                         ... optimisationDFTB3D3hydrogen.gbw
Electron density file                           ... optimisationDFTB3D3hydrogen.scfp
The origin for moment calculation is the CENTER OF MASS  = (-8.729174,  3.206109  0.000000)

-------------
DIPOLE MOMENT
-------------
                                X             Y             Z
Electronic contribution:     -0.00000       0.00000      -0.00000
Nuclear contribution   :      0.00000      -0.00000       0.00000
                        -----------------------------------------
Total Dipole Moment    :     -0.00000      -0.00000      -0.00000
                        -----------------------------------------
Magnitude (a.u.)       :      0.00000
Magnitude (Debye)      :      0.00000



--------------------
Rotational spectrum 
--------------------
 
Rotational constants in cm-1:     0.000000    57.745033    57.745033 
Rotational constants in MHz :     0.000000 1731152.550455 1731152.550455 

 Dipole components along the rotational axes: 
x,y,z [a.u.] :     0.000000    -0.000000    -0.000000 
x,y,z [Debye]:     0.000000    -0.000000    -0.000000 

 

Timings for individual modules:

Sum of individual times         ...       14.064 sec (=   0.234 min)
GTO integral calculation        ...        2.491 sec (=   0.042 min)  17.7 %
SCF iterations                  ...        8.980 sec (=   0.150 min)  63.9 %
SCF Gradient evaluation         ...        2.205 sec (=   0.037 min)  15.7 %
Geometry relaxation             ...        0.388 sec (=   0.006 min)   2.8 %
                             ****ORCA TERMINATED NORMALLY****
TOTAL RUN TIME: 0 days 0 hours 0 minutes 15 seconds 30 msec
