
                                 *****************
                                 * O   R   C   A *
                                 *****************

           --- An Ab Initio, DFT and Semiempirical electronic structure package ---

                  #######################################################
                  #                        -***-                        #
                  #          Department of theory and spectroscopy      #
                  #               Directorship: Frank Neese             #
                  #        Max Planck Institute fuer Kohlenforschung    #
                  #                Kaiser Wilhelm Platz 1               #
                  #                 D-45470 Muelheim/Ruhr               #
                  #                      Germany                        #
                  #                                                     #
                  #                  All rights reserved                #
                  #                        -***-                        #
                  #######################################################


                         Program Version 4.2.1 -  RELEASE  -


 With contributions from (in alphabetic order):
   Daniel Aravena         : Magnetic Suceptibility
   Michael Atanasov       : Ab Initio Ligand Field Theory (pilot matlab implementation)
   Alexander A. Auer      : GIAO ZORA, VPT2
   Ute Becker             : Parallelization
   Giovanni Bistoni       : ED, misc. LED, open-shell LED, HFLD
   Martin Brehm           : Molecular dynamics
   Dmytro Bykov           : SCF Hessian
   Vijay G. Chilkuri      : MRCI spin determinant printing, contributions to CSF-ICE
   Dipayan Datta          : RHF DLPNO-CCSD density
   Achintya Kumar Dutta   : EOM-CC, STEOM-CC
   Dmitry Ganyushin       : Spin-Orbit,Spin-Spin,Magnetic field MRCI
   Miquel Garcia          : C-PCM Hessian, Gaussian charge scheme
   Yang Guo               : DLPNO-NEVPT2, CIM, IAO-localization
   Andreas Hansen         : Spin unrestricted coupled pair/coupled cluster methods
   Benjamin Helmich-Paris : CASSCF linear response (MC-RPA)
   Lee Huntington         : MR-EOM, pCC
   Robert Izsak           : Overlap fitted RIJCOSX, COSX-SCS-MP3, EOM
   Christian Kollmar      : KDIIS, OOCD, Brueckner-CCSD(T), CCSD density
   Simone Kossmann        : Meta GGA functionals, TD-DFT gradient, OOMP2, MP2 Hessian
   Martin Krupicka        : AUTO-CI
   Lucas Lang             : DCDCAS
   Dagmar Lenk            : GEPOL surface, SMD
   Dimitrios Liakos       : Extrapolation schemes; Compound Job, initial MDCI parallelization
   Dimitrios Manganas     : Further ROCIS development; embedding schemes
   Dimitrios Pantazis     : SARC Basis sets
   Taras Petrenko         : DFT Hessian,TD-DFT gradient, ASA, ECA, R-Raman, ABS, FL, XAS/XES, NRVS
   Peter Pinski           : DLPNO-MP2, DLPNO-MP2 Gradient
   Christoph Reimann      : Effective Core Potentials
   Marius Retegan         : Local ZFS, SOC
   Christoph Riplinger    : Optimizer, TS searches, QM/MM, DLPNO-CCSD(T), (RO)-DLPNO pert. Triples
   Tobias Risthaus        : Range-separated hybrids, TD-DFT gradient, RPA, STAB
   Michael Roemelt        : Original ROCIS implementation
   Masaaki Saitow         : Open-shell DLPNO-CCSD energy and density
   Barbara Sandhoefer     : DKH picture change effects
   Avijit Sen             : IP-ROCIS
   Kantharuban Sivalingam : CASSCF convergence, NEVPT2, FIC-MRCI
   Bernardo de Souza      : ESD, SOC TD-DFT
   Georgi Stoychev        : AutoAux, RI-MP2 NMR
   Willem Van den Heuvel  : Paramagnetic NMR
   Boris Wezisla          : Elementary symmetry handling
   Frank Wennmohs         : Technical directorship


 We gratefully acknowledge several colleagues who have allowed us to
 interface, adapt or use parts of their codes:
   Stefan Grimme, W. Hujo, H. Kruse,             : VdW corrections, initial TS optimization,
                  C. Bannwarth                     DFT functionals, gCP, sTDA/sTD-DF
   Ed Valeev, F. Pavosevic, A. Kumar             : LibInt (2-el integral package), F12 methods
   Garnet Chan, S. Sharma, J. Yang, R. Olivares  : DMRG
   Ulf Ekstrom                                   : XCFun DFT Library
   Mihaly Kallay                                 : mrcc  (arbitrary order and MRCC methods)
   Andreas Klamt, Michael Diedenhofen            : otool_cosmo (COSMO solvation model)
   Jiri Pittner, Ondrej Demel                    : Mk-CCSD
   Frank Weinhold                                : gennbo (NPA and NBO analysis)
   Christopher J. Cramer and Donald G. Truhlar   : smd solvation model
   Lars Goerigk                                  : TD-DFT with DH, B97 family of functionals
   V. Asgeirsson, H. Jonsson                     : NEB implementation
   FAccTs GmbH                                   : IRC, NEB, NEB-TS, Multilevel, MM, QM/MM, CI optimization
   S Lehtola, MJT Oliveira, MAL Marques          : LibXC Library


 Your calculation uses the libint2 library for the computation of 2-el integrals
 For citations please refer to: http://libint.valeyev.net

 Your ORCA version has been built with support for libXC version: 4.2.3
 For citations please refer to: https://tddft.org/programs/libxc/

 This ORCA versions uses:
   CBLAS   interface :  Fast vector & matrix operations
   LAPACKE interface :  Fast linear algebra routines
   SCALAPACK package :  Parallel linear algebra routines




***************************************
The coordinates will be read from file: ../single_point_energy/water/water.xyz
***************************************


----- Orbital basis set information -----
Your calculation utilizes the basis: def2-SVP
   F. Weigend and R. Ahlrichs, Phys. Chem. Chem. Phys. 7, 3297 (2005).

================================================================================
                                        WARNINGS
                       Please study these warnings very carefully!
================================================================================


WARNING: Geometry Optimization
  ===> : Switching off AutoStart
         For restart on a previous wavefunction, please use MOREAD

INFO   : the flag for use of LIBINT has been found!

================================================================================
                                       INPUT FILE
================================================================================
NAME = waterDFTB3.txt
|  1> ! DFT B3LYP Opt
|  2> 
|  3> *xyzfile 0 1 ../single_point_energy/water/water.xyz
|  4> %base "optimisationDFTB3""                         ****END OF INPUT****
================================================================================

                       *****************************
                       * Geometry Optimization Run *
                       *****************************

Geometry optimization settings:
Update method            Update   .... BFGS
Choice of coordinates    CoordSys .... Z-matrix Internals
Initial Hessian          InHess   .... Almoef's Model

Convergence Tolerances:
Energy Change            TolE     ....  5.0000e-06 Eh
Max. Gradient            TolMAXG  ....  3.0000e-04 Eh/bohr
RMS Gradient             TolRMSG  ....  1.0000e-04 Eh/bohr
Max. Displacement        TolMAXD  ....  4.0000e-03 bohr
RMS Displacement         TolRMSD  ....  2.0000e-03 bohr
Strict Convergence                ....  False
------------------------------------------------------------------------------
                        ORCA OPTIMIZATION COORDINATE SETUP
------------------------------------------------------------------------------

The optimization will be done in new redundant internal coordinates
Making redundant internal coordinates   ...  (new redundants) done
Evaluating the initial hessian          ...  (Almloef) done
Evaluating the coordinates              ...  done
Calculating the B-matrix                .... done
Calculating the G-matrix                .... done
Diagonalizing the G-matrix              .... done
The first mode is                       ....    0
The number of degrees of freedom        ....    3

    -----------------------------------------------------------------
                    Redundant Internal Coordinates


    -----------------------------------------------------------------
         Definition                    Initial Value    Approx d2E/dq
    -----------------------------------------------------------------
      1. B(H   1,O   0)                  1.6462         0.041797   
      2. B(H   2,O   0)                  1.7040         0.033798   
      3. A(H   1,O   0,H   2)           93.7019         0.159887   
    -----------------------------------------------------------------

Number of atoms                         .... 3
Number of degrees of freedom            .... 3

         *************************************************************
         *                GEOMETRY OPTIMIZATION CYCLE   1            *
         *************************************************************
---------------------------------
CARTESIAN COORDINATES (ANGSTROEM)
---------------------------------
  O     -3.319480    1.987730    0.000000
  H     -1.893830    1.527550    0.682490
  H     -2.578200    2.576280   -1.417000

----------------------------
CARTESIAN COORDINATES (A.U.)
----------------------------
  NO LB      ZA    FRAG     MASS         X           Y           Z
   0 O     8.0000    0    15.999   -6.272908    3.756265    0.000000
   1 H     1.0000    0     1.008   -3.578820    2.886651    1.289719
   2 H     1.0000    0     1.008   -4.872092    4.868464   -2.677742

--------------------------------
INTERNAL COORDINATES (ANGSTROEM)
--------------------------------
 O      0   0   0     0.000000000000     0.00000000     0.00000000
 H      1   0   0     1.646218744578     0.00000000     0.00000000
 H      1   2   0     1.704046989053    93.70190767     0.00000000

---------------------------
INTERNAL COORDINATES (A.U.)
---------------------------
 O      0   0   0     0.000000000000     0.00000000     0.00000000
 H      1   0   0     3.110902583780     0.00000000     0.00000000
 H      1   2   0     3.220182128643    93.70190767     0.00000000

---------------------
BASIS SET INFORMATION
---------------------
There are 2 groups of distinct atoms

 Group   1 Type O   : 7s4p1d contracted to 3s2p1d pattern {511/31/1}
 Group   2 Type H   : 4s1p contracted to 2s1p pattern {31/1}

Atom   0O    basis set group =>   1
Atom   1H    basis set group =>   2
Atom   2H    basis set group =>   2
------------------------------------------------------------------------------
                           ORCA GTO INTEGRAL CALCULATION
------------------------------------------------------------------------------

                         BASIS SET STATISTICS AND STARTUP INFO

 # of primitive gaussian shells          ...   22
 # of primitive gaussian functions       ...   38
 # of contracted shells                  ...   12
 # of contracted basis functions         ...   24
 Highest angular momentum                ...    2
 Maximum contraction depth               ...    5
 Integral package used                   ... LIBINT
 Integral threshhold            Thresh   ...  2.500e-11
 Primitive cut-off              TCut     ...  2.500e-12


------------------------------ INTEGRAL EVALUATION ----------------------------


 * One electron integrals 
 Pre-screening matrix                    ... done
 Shell pair data                         ... done (   0.000 sec)

-------------------------------------------------------------------------------
                                 ORCA SCF
-------------------------------------------------------------------------------

------------
SCF SETTINGS
------------
Hamiltonian:
 Density Functional     Method          .... DFT(GTOs)
 Exchange Functional    Exchange        .... B88
   X-Alpha parameter    XAlpha          ....  0.666667
   Becke's b parameter  XBeta           ....  0.004200
 Correlation Functional Correlation     .... LYP
 LDA part of GGA corr.  LDAOpt          .... VWN-5
 Gradients option       PostSCFGGA      .... off
 Hybrid DFT is turned on
   Fraction HF Exchange ScalHFX         ....  0.200000
   Scaling of DF-GGA-X  ScalDFX         ....  0.720000
   Scaling of DF-GGA-C  ScalDFC         ....  0.810000
   Scaling of DF-LDA-C  ScalLDAC        ....  1.000000
   Perturbative correction              ....  0.000000
   Density functional embedding theory  .... OFF
   NL short-range parameter             ....  4.800000


General Settings:
 Integral files         IntName         .... optimisationDFTB3
 Hartree-Fock type      HFTyp           .... RHF
 Total Charge           Charge          ....    0
 Multiplicity           Mult            ....    1
 Number of Electrons    NEL             ....   10
 Basis Dimension        Dim             ....   24
 Nuclear Repulsion      ENuc            ....      5.2724005323 Eh

Convergence Acceleration:
 DIIS                   CNVDIIS         .... on
   Start iteration      DIISMaxIt       ....    12
   Startup error        DIISStart       ....  0.200000
   # of expansion vecs  DIISMaxEq       ....     5
   Bias factor          DIISBfac        ....   1.050
   Max. coefficient     DIISMaxC        ....  10.000
 Newton-Raphson         CNVNR           .... off
 SOSCF                  CNVSOSCF        .... on
   Start iteration      SOSCFMaxIt      ....   150
   Startup grad/error   SOSCFStart      ....  0.003300
 Level Shifting         CNVShift        .... on
   Level shift para.    LevelShift      ....    0.2500
   Turn off err/grad.   ShiftErr        ....    0.0010
 Zerner damping         CNVZerner       .... off
 Static damping         CNVDamp         .... on
   Fraction old density DampFac         ....    0.7000
   Max. Damping (<1)    DampMax         ....    0.9800
   Min. Damping (>=0)   DampMin         ....    0.0000
   Turn off err/grad.   DampErr         ....    0.1000
 Fernandez-Rico         CNVRico         .... off

SCF Procedure:
 Maximum # iterations   MaxIter         ....   125
 SCF integral mode      SCFMode         .... Direct
   Integral package                     .... LIBINT
 Reset frequency        DirectResetFreq ....    20
 Integral Threshold     Thresh          ....  2.500e-11 Eh
 Primitive CutOff       TCut            ....  2.500e-12 Eh

Convergence Tolerance:
 Convergence Check Mode ConvCheckMode   .... Total+1el-Energy
 Convergence forced     ConvForced      .... 0
 Energy Change          TolE            ....  1.000e-08 Eh
 1-El. energy change                    ....  1.000e-05 Eh
 Orbital Gradient       TolG            ....  1.000e-05
 Orbital Rotation angle TolX            ....  1.000e-05
 DIIS Error             TolErr          ....  5.000e-07


Diagonalization of the overlap matrix:
Smallest eigenvalue                        ... 1.136e-01
Time for diagonalization                   ...    0.001 sec
Threshold for overlap eigenvalues          ... 1.000e-08
Number of eigenvalues below threshold      ... 0
Time for construction of square roots      ...    0.000 sec
Total time needed                          ...    0.001 sec

-------------------
DFT GRID GENERATION
-------------------

General Integration Accuracy     IntAcc      ...  4.340
Radial Grid Type                 RadialGrid  ... Gauss-Chebyshev
Angular Grid (max. acc.)         AngularGrid ... Lebedev-110
Angular grid pruning method      GridPruning ... 3 (G Style)
Weight generation scheme         WeightScheme... Becke
Basis function cutoff            BFCut       ...    1.0000e-11
Integration weight cutoff        WCut        ...    1.0000e-14
Grids for H and He will be reduced by one unit

# of grid points (after initial pruning)     ...   3304 (   0.0 sec)
# of grid points (after weights+screening)   ...   3301 (   0.0 sec)
nearest neighbour list constructed           ...    0.0 sec
Grid point re-assignment to atoms done       ...    0.0 sec
Grid point division into batches done        ...    0.0 sec
Reduced shell lists constructed in    0.0 sec

Total number of grid points                  ...     3301
Total number of batches                      ...       52
Average number of points per batch           ...       63
Average number of grid points per atom       ...     1100
Average number of shells per batch           ...    10.94 (91.19%)
Average number of basis functions per batch  ...    21.96 (91.51%)
Average number of large shells per batch     ...    10.19 (93.10%)
Average number of large basis fcns per batch ...    20.38 (92.78%)
Maximum spatial batch extension              ...  22.22, 22.51, 18.30 au
Average spatial batch extension              ...   5.93,  6.48,  5.51 au

Time for grid setup =    0.009 sec

------------------------------
INITIAL GUESS: MODEL POTENTIAL
------------------------------
Loading Hartree-Fock densities                     ... done
Calculating cut-offs                               ... done
Setting up the integral package                    ... done
Initializing the effective Hamiltonian             ... done
Starting the Coulomb interaction                   ... done (   0.0 sec)
Reading the grid                                   ... done
Mapping shells                                     ... done
Starting the XC term evaluation                    ... done (   0.0 sec)
  promolecular density results
     # of electrons  =      9.998184224
     EX              =     -8.612240195
     EC              =     -0.316734903
     EX+EC           =     -8.928975098
Transforming the Hamiltonian                       ... done (   0.0 sec)
Diagonalizing the Hamiltonian                      ... done (   0.0 sec)
Back transforming the eigenvectors                 ... done (   0.0 sec)
Now organizing SCF variables                       ... done
                      ------------------
                      INITIAL GUESS DONE (   0.1 sec)
                      ------------------
--------------
SCF ITERATIONS
--------------
ITER       Energy         Delta-E        Max-DP      RMS-DP      [F,P]     Damp
               ***  Starting incremental Fock matrix formation  ***
  0    -75.8473810884   0.000000000000 0.15673799  0.01647298  0.3792271 0.7000
  1    -75.9860488959  -0.138667807467 0.08913919  0.00861430  0.0810266 0.7000
                               ***Turning on DIIS***
  2    -75.9918632301  -0.005814334247 0.03699011  0.00318666  0.1047991 0.7000
  3    -76.0136285882  -0.021765358095 0.07382137  0.00856894  0.0696009 0.0000
  4    -76.0598100459  -0.046181457691 0.03045002  0.00264908  0.0797565 0.0000
  5    -76.0658035504  -0.005993504534 0.00962289  0.00095091  0.0384261 0.0000
  6    -76.0671811610  -0.001377610576 0.00509457  0.00051965  0.0181108 0.0000
  7    -76.0675191185  -0.000337957468 0.00225880  0.00023636  0.0076731 0.0000
                      *** Initiating the SOSCF procedure ***
                           *** Shutting down DIIS ***
                      *** Re-Reading the Fockian *** 
                      *** Removing any level shift *** 
ITER      Energy       Delta-E        Grad      Rot      Max-DP    RMS-DP
  8    -76.06758193  -0.0000628120  0.000531  0.000531  0.001038  0.000109
               *** Restarting incremental Fock matrix formation ***
  9    -76.06759394  -0.0000120126  0.000810  0.003714  0.003577  0.000348
 10    -76.06755823   0.0000357110  0.003170  0.002749  0.002822  0.000273
 11    -76.06759645  -0.0000382206  0.000023  0.000027  0.000055  0.000006
 12    -76.06759646  -0.0000000040  0.000008  0.000015  0.000018  0.000002
                 **** Energy Check signals convergence ****
              ***Rediagonalizing the Fockian in SOSCF/NRSCF***

               *****************************************************
               *                     SUCCESS                       *
               *           SCF CONVERGED AFTER  13 CYCLES          *
               *****************************************************

Setting up the final grid:

General Integration Accuracy     IntAcc      ...  4.670
Radial Grid Type                 RadialGrid  ... Gauss-Chebyshev
Angular Grid (max. acc.)         AngularGrid ... Lebedev-302
Angular grid pruning method      GridPruning ... 3 (G Style)
Weight generation scheme         WeightScheme... Becke
Basis function cutoff            BFCut       ...    1.0000e-11
Integration weight cutoff        WCut        ...    1.0000e-14
Grids for H and He will be reduced by one unit

# of grid points (after initial pruning)     ...  13000 (   0.0 sec)
# of grid points (after weights+screening)   ...  12959 (   0.0 sec)
nearest neighbour list constructed           ...    0.0 sec
Grid point re-assignment to atoms done       ...    0.0 sec
Grid point division into batches done        ...    0.0 sec
Reduced shell lists constructed in    0.0 sec

Total number of grid points                  ...    12959
Total number of batches                      ...      205
Average number of points per batch           ...       63
Average number of grid points per atom       ...     4320
Average number of shells per batch           ...    10.00 (83.29%)
Average number of basis functions per batch  ...    20.00 (83.31%)
Average number of large shells per batch     ...     9.14 (91.45%)
Average number of large basis fcns per batch ...    18.09 (90.48%)
Maximum spatial batch extension              ...  16.88, 16.92, 16.88 au
Average spatial batch extension              ...   3.43,  3.49,  3.26 au

Final grid set up in    0.0 sec
Final integration                            ... done (   0.0 sec)
Change in XC energy                          ...     0.000454899
Integrated number of electrons               ...     9.999974608
Previous integrated no of electrons          ...     9.999577587

----------------
TOTAL SCF ENERGY
----------------

Total Energy       :          -76.06714156 Eh           -2069.89215 eV

Components:
Nuclear Repulsion  :            5.27240053 Eh             143.46931 eV
Electronic Energy  :          -81.33954209 Eh           -2213.36147 eV
One Electron Energy:         -115.40467213 Eh           -3140.32078 eV
Two Electron Energy:           34.06513004 Eh             926.95931 eV

Virial components:
Potential Energy   :         -151.16790303 Eh           -4113.48777 eV
Kinetic Energy     :           75.10076147 Eh            2043.59561 eV
Virial Ratio       :            2.01286778


DFT components:
N(Alpha)           :        4.999987303773 electrons
N(Beta)            :        4.999987303773 electrons
N(Total)           :        9.999974607546 electrons
E(X)               :       -6.848056786272 Eh       
E(C)               :       -0.381701382811 Eh       
E(XC)              :       -7.229758169083 Eh       
DFET-embed. en.    :        0.000000000000 Eh       

---------------
SCF CONVERGENCE
---------------

  Last Energy change         ...   -5.7211e-10  Tolerance :   1.0000e-08
  Last MAX-Density change    ...    7.1074e-06  Tolerance :   1.0000e-07
  Last RMS-Density change    ...    6.7755e-07  Tolerance :   5.0000e-09
  Last Orbital Gradient      ...    1.9433e-06  Tolerance :   1.0000e-05
  Last Orbital Rotation      ...    5.7828e-06  Tolerance :   1.0000e-05

             **** THE GBW FILE WAS UPDATED (optimisationDFTB3.gbw) ****
             **** DENSITY FILE WAS UPDATED (optimisationDFTB3.scfp) ****
             **** ENERGY FILE WAS UPDATED (optimisationDFTB3.en.tmp) ****
             **** THE GBW FILE WAS UPDATED (optimisationDFTB3.gbw) ****
             **** DENSITY FILE WAS UPDATED (optimisationDFTB3.scfp) ****
----------------
ORBITAL ENERGIES
----------------

  NO   OCC          E(Eh)            E(eV) 
   0   2.0000     -19.194960      -522.3214 
   1   2.0000      -0.862101       -23.4589 
   2   2.0000      -0.356034        -9.6882 
   3   2.0000      -0.343859        -9.3569 
   4   2.0000      -0.284431        -7.7398 
   5   0.0000      -0.125718        -3.4210 
   6   0.0000      -0.097954        -2.6655 
   7   0.0000       0.421341        11.4653 
   8   0.0000       0.455268        12.3885 
   9   0.0000       0.870497        23.6874 
  10   0.0000       0.897392        24.4193 
  11   0.0000       0.964441        26.2438 
  12   0.0000       0.986580        26.8462 
  13   0.0000       1.375224        37.4217 
  14   0.0000       1.397860        38.0377 
  15   0.0000       1.407441        38.2984 
  16   0.0000       1.450498        39.4701 
  17   0.0000       1.576594        42.9013 
  18   0.0000       1.853867        50.4463 
  19   0.0000       2.628931        71.5368 
  20   0.0000       2.643063        71.9214 
  21   0.0000       2.646773        72.0224 
  22   0.0000       2.758436        75.0609 
  23   0.0000       2.848973        77.5245 

                    ********************************
                    * MULLIKEN POPULATION ANALYSIS *
                    ********************************

-----------------------
MULLIKEN ATOMIC CHARGES
-----------------------
   0 O :   -0.335809
   1 H :    0.173715
   2 H :    0.162093
Sum of atomic charges:    0.0000000

--------------------------------
MULLIKEN REDUCED ORBITAL CHARGES
--------------------------------
  0 O s       :     3.976622  s :     3.976622
      pz      :     1.326189  p :     4.357239
      px      :     1.184597
      py      :     1.846453
      dz2     :     0.000255  d :     0.001948
      dxz     :     0.000742
      dyz     :     0.000163
      dx2y2   :     0.000485
      dxy     :     0.000302
  1 H s       :     0.818851  s :     0.818851
      pz      :     0.001709  p :     0.007434
      px      :     0.004122
      py      :     0.001603
  2 H s       :     0.832083  s :     0.832083
      pz      :     0.003032  p :     0.005823
      px      :     0.001401
      py      :     0.001390


                     *******************************
                     * LOEWDIN POPULATION ANALYSIS *
                     *******************************

----------------------
LOEWDIN ATOMIC CHARGES
----------------------
   0 O :   -0.313523
   1 H :    0.160867
   2 H :    0.152656

-------------------------------
LOEWDIN REDUCED ORBITAL CHARGES
-------------------------------
  0 O s       :     3.931684  s :     3.931684
      pz      :     1.336733  p :     4.379544
      px      :     1.194974
      py      :     1.847837
      dz2     :     0.000321  d :     0.002295
      dxz     :     0.000891
      dyz     :     0.000207
      dx2y2   :     0.000528
      dxy     :     0.000348
  1 H s       :     0.823881  s :     0.823881
      pz      :     0.003101  p :     0.015252
      px      :     0.009330
      py      :     0.002821
  2 H s       :     0.835536  s :     0.835536
      pz      :     0.006465  p :     0.011808
      px      :     0.002876
      py      :     0.002467


                      *****************************
                      * MAYER POPULATION ANALYSIS *
                      *****************************

  NA   - Mulliken gross atomic population
  ZA   - Total nuclear charge
  QA   - Mulliken gross atomic charge
  VA   - Mayer's total valence
  BVA  - Mayer's bonded valence
  FA   - Mayer's free valence

  ATOM       NA         ZA         QA         VA         BVA        FA
  0 O      8.3358     8.0000    -0.3358     1.9388     1.9388     0.0000
  1 H      0.8263     1.0000     0.1737     0.9678     0.9678     0.0000
  2 H      0.8379     1.0000     0.1621     0.9719     0.9719     0.0000

  Mayer bond orders larger than 0.100000
B(  0-O ,  1-H ) :   0.9673 B(  0-O ,  2-H ) :   0.9715 

-------
TIMINGS
-------

Total SCF time: 0 days 0 hours 0 min 1 sec 

Total time                  ....       1.374 sec
Sum of individual times     ....       1.245 sec  ( 90.6%)

Fock matrix formation       ....       1.129 sec  ( 82.1%)
  XC integration            ....       0.075 sec  (  6.6% of F)
    Basis function eval.    ....       0.021 sec  ( 27.7% of XC)
    Density eval.           ....       0.016 sec  ( 21.7% of XC)
    XC-Functional eval.     ....       0.017 sec  ( 22.9% of XC)
    XC-Potential eval.      ....       0.010 sec  ( 12.9% of XC)
Diagonalization             ....       0.001 sec  (  0.1%)
Density matrix formation    ....       0.000 sec  (  0.0%)
Population analysis         ....       0.001 sec  (  0.1%)
Initial guess               ....       0.063 sec  (  4.6%)
Orbital Transformation      ....       0.000 sec  (  0.0%)
Orbital Orthonormalization  ....       0.000 sec  (  0.0%)
DIIS solution               ....       0.002 sec  (  0.1%)
SOSCF solution              ....       0.001 sec  (  0.1%)
Grid generation             ....       0.049 sec  (  3.6%)

-------------------------   --------------------
FINAL SINGLE POINT ENERGY       -76.067141558067
-------------------------   --------------------

------------------------------------------------------------------------------
                         ORCA SCF GRADIENT CALCULATION
------------------------------------------------------------------------------

Gradient of the Kohn-Sham DFT energy:
Kohn-Sham wavefunction type      ... RKS
Hartree-Fock exchange scaling    ...    0.200
Number of operators              ...    1
Number of atoms                  ...    3
Basis set dimensions             ...   24
Integral neglect threshold       ... 2.5e-11
Integral primitive cutoff        ... 2.5e-12

Nuclear repulsion gradient       ... done
One Electron Gradient            ... done
Pre-screening matrix             ... done
Starting the two electron gradient:
Two electron gradient done
Exchange-correlation gradient    ... done

------------------
CARTESIAN GRADIENT
------------------

   1   O   :   -0.122443118   -0.004610319    0.036008351
   2   H   :    0.083465767   -0.027783930    0.041625399
   3   H   :    0.038977351    0.032394248   -0.077633750

Difference to translation invariance:
           :    0.0000000000   -0.0000000000    0.0000000000

Norm of the cartesian gradient     ...    0.1854102173
RMS gradient                       ...    0.0618034058
MAX gradient                       ...    0.1224431179

-------
TIMINGS
-------

Total SCF gradient time            ...        0.146 sec

One electron gradient       ....       0.001 sec  (  0.8%)
Prescreening matrices       ....       0.002 sec  (  1.0%)
Two electron gradient       ....       0.017 sec  ( 11.7%)
XC gradient                 ....       0.054 sec  ( 36.6%)
------------------------------------------------------------------------------
                         ORCA GEOMETRY RELAXATION STEP
------------------------------------------------------------------------------

Reading the OPT-File                    .... done
Getting information on internals        .... done
Copying old internal coords+grads       .... done
Making the new internal coordinates     .... (new redundants).... done
Validating the new internal coordinates .... (new redundants).... done
Calculating the B-matrix                .... done
Calculating the G,G- and P matrices     .... done
Transforming gradient to internals      .... done
Projecting the internal gradient        .... done
Number of atoms                         ....   3
Number of internal coordinates          ....   3
Current Energy                          ....   -76.067141558 Eh
Current gradient norm                   ....     0.185410217 Eh/bohr
Maximum allowed component of the step   ....  0.300
Current trust radius                    ....  0.300
Evaluating the initial hessian          ....  (Almloef) done
Projecting the Hessian                  .... done
Forming the augmented Hessian           .... done
Diagonalizing the augmented Hessian     .... done
Last element of RFO vector              ....  0.754773478
Lowest eigenvalues of augmented Hessian:
 -0.116829843  0.037569065  0.153236737
Length of the computed step             ....  0.869115748
Warning: the length of the step is outside the trust region - taking restricted step instead
The input lambda is                     ....    -0.116830
   iter:   1  x=   -0.184894  g=    9.775552 f(x)=     0.665362
   iter:   2  x=   -0.268729  g=    3.269990 f(x)=     0.274139
   iter:   3  x=   -0.350259  g=    1.253794 f(x)=     0.102222
   iter:   4  x=   -0.398730  g=    0.618009 f(x)=     0.029956
   iter:   5  x=   -0.409794  g=    0.434190 f(x)=     0.004804
   iter:   6  x=   -0.410232  g=    0.402790 f(x)=     0.000177
   iter:   7  x=   -0.410233  g=    0.401609 f(x)=     0.000000
   iter:   8  x=   -0.410233  g=    0.401607 f(x)=     0.000000
   iter:   9  x=   -0.410233  g=    0.401607 f(x)=     0.000000
The output lambda is                    ....    -0.410233 (9 iterations)
The final length of the internal step   ....  0.300000000
Converting the step to cartesian space:
 Initial RMS(Int)=    0.1732050808
Transforming coordinates:
 Iter   0:  RMS(Cart)=    0.0856240747 RMS(Int)=    0.1731879018
 Iter   1:  RMS(Cart)=    0.0003706148 RMS(Int)=    0.0003909692
 Iter   2:  RMS(Cart)=    0.0000262045 RMS(Int)=    0.0000282080
 Iter   3:  RMS(Cart)=    0.0000018772 RMS(Int)=    0.0000020175
 Iter   4:  RMS(Cart)=    0.0000001343 RMS(Int)=    0.0000001444
 Iter   5:  RMS(Cart)=    0.0000000096 RMS(Int)=    0.0000000103
done
Storing new coordinates                 .... done

                                .--------------------.
          ----------------------|Geometry convergence|-------------------------
          Item                value                   Tolerance       Converged
          ---------------------------------------------------------------------
          RMS gradient        0.0776457800            0.0001000000      NO
          MAX gradient        0.0973221002            0.0003000000      NO
          RMS step            0.1732050808            0.0020000000      NO
          MAX step            0.2152999042            0.0040000000      NO
          ........................................................
          Max(Bonds)      0.1139      Max(Angles)    0.50
          Max(Dihed)        0.00      Max(Improp)    0.00
          ---------------------------------------------------------------------

The optimization has not yet converged - more geometry cycles are needed


    ---------------------------------------------------------------------------
                         Redundant Internal Coordinates
                            (Angstroem and degrees)

        Definition                    Value    dE/dq     Step     New-Value
    ----------------------------------------------------------------------------
     1. B(H   1,O   0)                1.6462  0.097322 -0.1139    1.5323   
     2. B(H   2,O   0)                1.7040  0.092685 -0.1105    1.5936   
     3. A(H   1,O   0,H   2)           93.70  0.004947   -0.50     93.20   
    ----------------------------------------------------------------------------

         *************************************************************
         *                GEOMETRY OPTIMIZATION CYCLE   2            *
         *************************************************************
---------------------------------
CARTESIAN COORDINATES (ANGSTROEM)
---------------------------------
  O     -3.273431    1.989303   -0.013136
  H     -1.942223    1.563809    0.615150
  H     -2.575857    2.538449   -1.336523

----------------------------
CARTESIAN COORDINATES (A.U.)
----------------------------
  NO LB      ZA    FRAG     MASS         X           Y           Z
   0 O     8.0000    0    15.999   -6.185888    3.759237   -0.024824
   1 H     1.0000    0     1.008   -3.670269    2.955170    1.162464
   2 H     1.0000    0     1.008   -4.867663    4.796973   -2.525663

--------------------------------
INTERNAL COORDINATES (ANGSTROEM)
--------------------------------
 O      0   0   0     0.000000000000     0.00000000     0.00000000
 H      1   0   0     1.532286942256     0.00000000     0.00000000
 H      1   2   0     1.593588743779    93.20470912     0.00000000

---------------------------
INTERNAL COORDINATES (A.U.)
---------------------------
 O      0   0   0     0.000000000000     0.00000000     0.00000000
 H      1   0   0     2.895602679447     0.00000000     0.00000000
 H      1   2   0     3.011446295842    93.20470912     0.00000000


Diagonalization of the overlap matrix:
Smallest eigenvalue                        ... 9.985e-02
Time for diagonalization                   ...    0.000 sec
Threshold for overlap eigenvalues          ... 1.000e-08
Number of eigenvalues below threshold      ... 0
Time for construction of square roots      ...    0.000 sec
Total time needed                          ...    0.000 sec

-------------------
DFT GRID GENERATION
-------------------

General Integration Accuracy     IntAcc      ...  4.340
Radial Grid Type                 RadialGrid  ... Gauss-Chebyshev
Angular Grid (max. acc.)         AngularGrid ... Lebedev-110
Angular grid pruning method      GridPruning ... 3 (G Style)
Weight generation scheme         WeightScheme... Becke
Basis function cutoff            BFCut       ...    1.0000e-11
Integration weight cutoff        WCut        ...    1.0000e-14
Grids for H and He will be reduced by one unit

# of grid points (after initial pruning)     ...   3304 (   0.0 sec)
# of grid points (after weights+screening)   ...   3299 (   0.0 sec)
nearest neighbour list constructed           ...    0.0 sec
Grid point re-assignment to atoms done       ...    0.0 sec
Grid point division into batches done        ...    0.0 sec
Reduced shell lists constructed in    0.0 sec

Total number of grid points                  ...     3299
Total number of batches                      ...       54
Average number of points per batch           ...       61
Average number of grid points per atom       ...     1100
Average number of shells per batch           ...    10.96 (91.36%)
Average number of basis functions per batch  ...    22.02 (91.74%)
Average number of large shells per batch     ...    10.20 (93.03%)
Average number of large basis fcns per batch ...    20.42 (92.73%)
Maximum spatial batch extension              ...  21.80, 21.59, 18.30 au
Average spatial batch extension              ...   6.08,  5.91,  5.35 au

Time for grid setup =    0.005 sec

--------------
SCF ITERATIONS
--------------
ITER       Energy         Delta-E        Max-DP      RMS-DP      [F,P]     Damp
               ***  Starting incremental Fock matrix formation  ***
  0    -76.1083388955   0.000000000000 0.00719869  0.00067946  0.0195759 0.7000
  1    -76.1087294462  -0.000390550668 0.00483308  0.00055128  0.0093744 0.7000
                               ***Turning on DIIS***
  2    -76.1089476185  -0.000218172352 0.00924227  0.00134380  0.0073303 0.0000
                      *** Initiating the SOSCF procedure ***
                           *** Shutting down DIIS ***
                      *** Re-Reading the Fockian *** 
                      *** Removing any level shift *** 
ITER      Energy       Delta-E        Grad      Rot      Max-DP    RMS-DP
  3    -76.10950542  -0.0005577987  0.001795  0.001795  0.002989  0.000309
               *** Restarting incremental Fock matrix formation ***
  4    -76.10950314   0.0000022780  0.001994  0.007952  0.008924  0.000777
  5    -76.10934943   0.0001537060  0.006631  0.005503  0.005992  0.000591
  6    -76.10951984  -0.0001704105  0.000067  0.000251  0.000152  0.000022
  7    -76.10951991  -0.0000000703  0.000017  0.000060  0.000082  0.000008
                 **** Energy Check signals convergence ****
              ***Rediagonalizing the Fockian in SOSCF/NRSCF***

               *****************************************************
               *                     SUCCESS                       *
               *           SCF CONVERGED AFTER   8 CYCLES          *
               *****************************************************

Setting up the final grid:

General Integration Accuracy     IntAcc      ...  4.670
Radial Grid Type                 RadialGrid  ... Gauss-Chebyshev
Angular Grid (max. acc.)         AngularGrid ... Lebedev-302
Angular grid pruning method      GridPruning ... 3 (G Style)
Weight generation scheme         WeightScheme... Becke
Basis function cutoff            BFCut       ...    1.0000e-11
Integration weight cutoff        WCut        ...    1.0000e-14
Grids for H and He will be reduced by one unit

# of grid points (after initial pruning)     ...  13000 (   0.0 sec)
# of grid points (after weights+screening)   ...  12954 (   0.0 sec)
nearest neighbour list constructed           ...    0.0 sec
Grid point re-assignment to atoms done       ...    0.0 sec
Grid point division into batches done        ...    0.0 sec
Reduced shell lists constructed in    0.0 sec

Total number of grid points                  ...    12954
Total number of batches                      ...      204
Average number of points per batch           ...       63
Average number of grid points per atom       ...     4318
Average number of shells per batch           ...    10.00 (83.29%)
Average number of basis functions per batch  ...    20.01 (83.39%)
Average number of large shells per batch     ...     9.28 (92.83%)
Average number of large basis fcns per batch ...    18.46 (92.23%)
Maximum spatial batch extension              ...  16.88, 16.92, 16.88 au
Average spatial batch extension              ...   3.41,  3.52,  3.26 au

Final grid set up in    0.0 sec
Final integration                            ... done (   0.0 sec)
Change in XC energy                          ...     0.000191544
Integrated number of electrons               ...     9.999976591
Previous integrated no of electrons          ...     9.999806636
Total Energy       :          -76.10932838 Eh           -2071.04011 eV
  Last Energy change         ...   -5.2175e-09  Tolerance :   1.0000e-08
  Last MAX-Density change    ...    1.7883e-05  Tolerance :   1.0000e-07
             **** THE GBW FILE WAS UPDATED (optimisationDFTB3.gbw) ****
             **** DENSITY FILE WAS UPDATED (optimisationDFTB3.scfp) ****
             **** ENERGY FILE WAS UPDATED (optimisationDFTB3.en.tmp) ****
             **** THE GBW FILE WAS UPDATED (optimisationDFTB3.gbw) ****
             **** DENSITY FILE WAS UPDATED (optimisationDFTB3.scfp) ****
Total SCF time: 0 days 0 hours 0 min 0 sec 

-------------------------   --------------------
FINAL SINGLE POINT ENERGY       -76.109328375561
-------------------------   --------------------

------------------------------------------------------------------------------
                         ORCA SCF GRADIENT CALCULATION
------------------------------------------------------------------------------

Gradient of the Kohn-Sham DFT energy:
Kohn-Sham wavefunction type      ... RKS
Hartree-Fock exchange scaling    ...    0.200
Number of operators              ...    1
Number of atoms                  ...    3
Basis set dimensions             ...   24
Integral neglect threshold       ... 2.5e-11
Integral primitive cutoff        ... 2.5e-12

Nuclear repulsion gradient       ... done
One Electron Gradient            ... done
Pre-screening matrix             ... done
Starting the two electron gradient:
Two electron gradient done
Exchange-correlation gradient    ... done

------------------
CARTESIAN GRADIENT
------------------

   1   O   :   -0.134511176   -0.005395906    0.040290330
   2   H   :    0.091246358   -0.029878258    0.044326045
   3   H   :    0.043264818    0.035274164   -0.084616375

Difference to translation invariance:
           :    0.0000000000   -0.0000000000    0.0000000000

Norm of the cartesian gradient     ...    0.2029904715
RMS gradient                       ...    0.0676634905
MAX gradient                       ...    0.1345111763

-------
TIMINGS
-------

Total SCF gradient time            ...        0.132 sec

One electron gradient       ....       0.001 sec  (  0.4%)
Prescreening matrices       ....       0.001 sec  (  1.0%)
Two electron gradient       ....       0.007 sec  (  5.6%)
XC gradient                 ....       0.054 sec  ( 40.6%)
------------------------------------------------------------------------------
                         ORCA GEOMETRY RELAXATION STEP
------------------------------------------------------------------------------

Reading the OPT-File                    .... done
Getting information on internals        .... done
Copying old internal coords+grads       .... done
Making the new internal coordinates     .... (new redundants).... done
Validating the new internal coordinates .... (new redundants).... done
Calculating the B-matrix                .... done
Calculating the G,G- and P matrices     .... done
Transforming gradient to internals      .... done
Projecting the internal gradient        .... done
Number of atoms                         ....   3
Number of internal coordinates          ....   3
Current Energy                          ....   -76.109328376 Eh
Current gradient norm                   ....     0.202990471 Eh/bohr
Maximum allowed component of the step   ....  0.300
Current trust radius                    ....  0.300
Updating the Hessian (BFGS)             .... done
Forming the augmented Hessian           .... done
Diagonalizing the augmented Hessian     .... done
Last element of RFO vector              ....  0.657186991
Lowest eigenvalues of augmented Hessian:
 -0.168027392  0.037187546  0.127529474
Length of the computed step             ....  1.146899719
Warning: the length of the step is outside the trust region - taking restricted step instead
The input lambda is                     ....    -0.168027
   iter:   1  x=   -0.227520  g=   20.597034 f(x)=     1.225379
   iter:   2  x=   -0.307373  g=    6.539976 f(x)=     0.522234
   iter:   3  x=   -0.400972  g=    2.252941 f(x)=     0.210872
   iter:   4  x=   -0.482940  g=    0.914785 f(x)=     0.074983
   iter:   5  x=   -0.522426  g=    0.494901 f(x)=     0.019542
   iter:   6  x=   -0.528522  g=    0.382998 f(x)=     0.002335
   iter:   7  x=   -0.528640  g=    0.368829 f(x)=     0.000044
   iter:   8  x=   -0.528640  g=    0.368561 f(x)=     0.000000
   iter:   9  x=   -0.528640  g=    0.368561 f(x)=     0.000000
The output lambda is                    ....    -0.528640 (9 iterations)
The final length of the internal step   ....  0.300000000
Converting the step to cartesian space:
 Initial RMS(Int)=    0.1732050808
Transforming coordinates:
 Iter   0:  RMS(Cart)=    0.0843386284 RMS(Int)=    0.1731973940
 Iter   1:  RMS(Cart)=    0.0002413091 RMS(Int)=    0.0002716849
 Iter   2:  RMS(Cart)=    0.0000185519 RMS(Int)=    0.0000210649
 Iter   3:  RMS(Cart)=    0.0000014362 RMS(Int)=    0.0000016293
 Iter   4:  RMS(Cart)=    0.0000001111 RMS(Int)=    0.0000001261
 Iter   5:  RMS(Cart)=    0.0000000086 RMS(Int)=    0.0000000098
done
Storing new coordinates                 .... done

                                .--------------------.
          ----------------------|Geometry convergence|-------------------------
          Item                value                   Tolerance       Converged
          ---------------------------------------------------------------------
          Energy change      -0.0421868175            0.0000050000      NO
          RMS gradient        0.0845965599            0.0001000000      NO
          MAX gradient        0.1057360257            0.0003000000      NO
          RMS step            0.1732050808            0.0020000000      NO
          MAX step            0.2158916326            0.0040000000      NO
          ........................................................
          Max(Bonds)      0.1142      Max(Angles)    0.32
          Max(Dihed)        0.00      Max(Improp)    0.00
          ---------------------------------------------------------------------

The optimization has not yet converged - more geometry cycles are needed


    ---------------------------------------------------------------------------
                         Redundant Internal Coordinates
                            (Angstroem and degrees)

        Definition                    Value    dE/dq     Step     New-Value
    ----------------------------------------------------------------------------
     1. B(H   1,O   0)                1.5323  0.105736 -0.1142    1.4180   
     2. B(H   2,O   0)                1.5936  0.101371 -0.1102    1.4834   
     3. A(H   1,O   0,H   2)           93.20  0.003680   -0.32     92.89   
    ----------------------------------------------------------------------------

         *************************************************************
         *                GEOMETRY OPTIMIZATION CYCLE   3            *
         *************************************************************
---------------------------------
CARTESIAN COORDINATES (ANGSTROEM)
---------------------------------
  O     -3.225794    1.990873   -0.026605
  H     -1.990889    1.599111    0.549915
  H     -2.574826    2.501576   -1.257820

----------------------------
CARTESIAN COORDINATES (A.U.)
----------------------------
  NO LB      ZA    FRAG     MASS         X           Y           Z
   0 O     8.0000    0    15.999   -6.095868    3.762205   -0.050276
   1 H     1.0000    0     1.008   -3.762235    3.021881    1.039188
   2 H     1.0000    0     1.008   -4.865717    4.727293   -2.376935

--------------------------------
INTERNAL COORDINATES (ANGSTROEM)
--------------------------------
 O      0   0   0     0.000000000000     0.00000000     0.00000000
 H      1   0   0     1.418042010793     0.00000000     0.00000000
 H      1   2   0     1.483397338610    92.88873506     0.00000000

---------------------------
INTERNAL COORDINATES (A.U.)
---------------------------
 O      0   0   0     0.000000000000     0.00000000     0.00000000
 H      1   0   0     2.679711046795     0.00000000     0.00000000
 H      1   2   0     2.803214717760    92.88873506     0.00000000


Diagonalization of the overlap matrix:
Smallest eigenvalue                        ... 8.529e-02
Time for diagonalization                   ...    0.000 sec
Threshold for overlap eigenvalues          ... 1.000e-08
Number of eigenvalues below threshold      ... 0
Time for construction of square roots      ...    0.000 sec
Total time needed                          ...    0.000 sec

-------------------
DFT GRID GENERATION
-------------------

General Integration Accuracy     IntAcc      ...  4.340
Radial Grid Type                 RadialGrid  ... Gauss-Chebyshev
Angular Grid (max. acc.)         AngularGrid ... Lebedev-110
Angular grid pruning method      GridPruning ... 3 (G Style)
Weight generation scheme         WeightScheme... Becke
Basis function cutoff            BFCut       ...    1.0000e-11
Integration weight cutoff        WCut        ...    1.0000e-14
Grids for H and He will be reduced by one unit

# of grid points (after initial pruning)     ...   3304 (   0.0 sec)
# of grid points (after weights+screening)   ...   3298 (   0.0 sec)
nearest neighbour list constructed           ...    0.0 sec
Grid point re-assignment to atoms done       ...    0.0 sec
Grid point division into batches done        ...    0.0 sec
Reduced shell lists constructed in    0.0 sec

Total number of grid points                  ...     3298
Total number of batches                      ...       54
Average number of points per batch           ...       61
Average number of grid points per atom       ...     1099
Average number of shells per batch           ...    11.02 (91.82%)
Average number of basis functions per batch  ...    22.07 (91.97%)
Average number of large shells per batch     ...    10.35 (93.89%)
Average number of large basis fcns per batch ...    20.78 (94.15%)
Maximum spatial batch extension              ...  21.62, 21.59, 18.30 au
Average spatial batch extension              ...   5.95,  5.84,  5.26 au

Time for grid setup =    0.005 sec

--------------
SCF ITERATIONS
--------------
ITER       Energy         Delta-E        Max-DP      RMS-DP      [F,P]     Damp
               ***  Starting incremental Fock matrix formation  ***
  0    -76.1531284045   0.000000000000 0.00775215  0.00078361  0.0217355 0.7000
  1    -76.1536660747  -0.000537670167 0.00554549  0.00065922  0.0117498 0.7000
                               ***Turning on DIIS***
  2    -76.1539998321  -0.000333757391 0.01196117  0.00163385  0.0090149 0.0000
  3    -76.1548209511  -0.000821119076 0.00399453  0.00040594  0.0034267 0.0000
  4    -76.1548178451   0.000003105993 0.00225327  0.00019171  0.0046549 0.0000
                      *** Initiating the SOSCF procedure ***
                           *** Shutting down DIIS ***
                      *** Re-Reading the Fockian *** 
                      *** Removing any level shift *** 
ITER      Energy       Delta-E        Grad      Rot      Max-DP    RMS-DP
  5    -76.15484062  -0.0000227756  0.000440  0.000440  0.000787  0.000061
               *** Restarting incremental Fock matrix formation ***
  6    -76.15484298  -0.0000023639  0.000336  0.001202  0.001153  0.000097
  7    -76.15484190   0.0000010828  0.000652  0.000553  0.000618  0.000059
  8    -76.15484350  -0.0000016001  0.000018  0.000023  0.000037  0.000004
                 **** Energy Check signals convergence ****
              ***Rediagonalizing the Fockian in SOSCF/NRSCF***

               *****************************************************
               *                     SUCCESS                       *
               *           SCF CONVERGED AFTER   9 CYCLES          *
               *****************************************************

Setting up the final grid:

General Integration Accuracy     IntAcc      ...  4.670
Radial Grid Type                 RadialGrid  ... Gauss-Chebyshev
Angular Grid (max. acc.)         AngularGrid ... Lebedev-302
Angular grid pruning method      GridPruning ... 3 (G Style)
Weight generation scheme         WeightScheme... Becke
Basis function cutoff            BFCut       ...    1.0000e-11
Integration weight cutoff        WCut        ...    1.0000e-14
Grids for H and He will be reduced by one unit

# of grid points (after initial pruning)     ...  13000 (   0.0 sec)
# of grid points (after weights+screening)   ...  12950 (   0.0 sec)
nearest neighbour list constructed           ...    0.0 sec
Grid point re-assignment to atoms done       ...    0.0 sec
Grid point division into batches done        ...    0.0 sec
Reduced shell lists constructed in    0.0 sec

Total number of grid points                  ...    12950
Total number of batches                      ...      205
Average number of points per batch           ...       63
Average number of grid points per atom       ...     4317
Average number of shells per batch           ...    10.05 (83.78%)
Average number of basis functions per batch  ...    20.13 (83.88%)
Average number of large shells per batch     ...     9.42 (93.72%)
Average number of large basis fcns per batch ...    18.78 (93.30%)
Maximum spatial batch extension              ...  16.88, 16.92, 16.88 au
Average spatial batch extension              ...   3.41,  3.54,  3.25 au

Final grid set up in    0.0 sec
Final integration                            ... done (   0.0 sec)
Change in XC energy                          ...    -0.000013815
Integrated number of electrons               ...     9.999997596
Previous integrated no of electrons          ...    10.000440759
Total Energy       :          -76.15485732 Eh           -2072.27902 eV
  Last Energy change         ...   -2.1014e-09  Tolerance :   1.0000e-08
  Last MAX-Density change    ...    5.3244e-06  Tolerance :   1.0000e-07
             **** THE GBW FILE WAS UPDATED (optimisationDFTB3.gbw) ****
             **** DENSITY FILE WAS UPDATED (optimisationDFTB3.scfp) ****
             **** ENERGY FILE WAS UPDATED (optimisationDFTB3.en.tmp) ****
             **** THE GBW FILE WAS UPDATED (optimisationDFTB3.gbw) ****
             **** DENSITY FILE WAS UPDATED (optimisationDFTB3.scfp) ****
Total SCF time: 0 days 0 hours 0 min 1 sec 

-------------------------   --------------------
FINAL SINGLE POINT ENERGY       -76.154857318577
-------------------------   --------------------

------------------------------------------------------------------------------
                         ORCA SCF GRADIENT CALCULATION
------------------------------------------------------------------------------

Gradient of the Kohn-Sham DFT energy:
Kohn-Sham wavefunction type      ... RKS
Hartree-Fock exchange scaling    ...    0.200
Number of operators              ...    1
Number of atoms                  ...    3
Basis set dimensions             ...   24
Integral neglect threshold       ... 2.5e-11
Integral primitive cutoff        ... 2.5e-12

Nuclear repulsion gradient       ... done
One Electron Gradient            ... done
Pre-screening matrix             ... done
Starting the two electron gradient:
Two electron gradient done
Exchange-correlation gradient    ... done

------------------
CARTESIAN GRADIENT
------------------

   1   O   :   -0.144497115   -0.006480761    0.044662959
   2   H   :    0.097278860   -0.031227171    0.046039471
   3   H   :    0.047218255    0.037707932   -0.090702430

Difference to translation invariance:
           :    0.0000000000   -0.0000000000    0.0000000000

Norm of the cartesian gradient     ...    0.2176063526
RMS gradient                       ...    0.0725354509
MAX gradient                       ...    0.1444971152

-------
TIMINGS
-------

Total SCF gradient time            ...        0.131 sec

One electron gradient       ....       0.001 sec  (  0.4%)
Prescreening matrices       ....       0.001 sec  (  1.0%)
Two electron gradient       ....       0.007 sec  (  5.7%)
XC gradient                 ....       0.053 sec  ( 40.5%)
------------------------------------------------------------------------------
                         ORCA GEOMETRY RELAXATION STEP
------------------------------------------------------------------------------

Reading the OPT-File                    .... done
Getting information on internals        .... done
Copying old internal coords+grads       .... done
Making the new internal coordinates     .... (new redundants).... done
Validating the new internal coordinates .... (new redundants).... done
Calculating the B-matrix                .... done
Calculating the G,G- and P matrices     .... done
Transforming gradient to internals      .... done
Projecting the internal gradient        .... done
Number of atoms                         ....   3
Number of internal coordinates          ....   3
Current Energy                          ....   -76.154857319 Eh
Current gradient norm                   ....     0.217606353 Eh/bohr
Maximum allowed component of the step   ....  0.300
Current trust radius                    ....  0.300
Updating the Hessian (BFGS)             .... done
Forming the augmented Hessian           .... done
Diagonalizing the augmented Hessian     .... done
Last element of RFO vector              ....  0.668937651
Lowest eigenvalues of augmented Hessian:
 -0.173661881  0.036831910  0.140066344
Length of the computed step             ....  1.111192527
Warning: the length of the step is outside the trust region - taking restricted step instead
The input lambda is                     ....    -0.173662
   iter:   1  x=   -0.238839  g=   17.563632 f(x)=     1.144749
   iter:   2  x=   -0.325679  g=    5.602078 f(x)=     0.486485
   iter:   3  x=   -0.425829  g=    1.948388 f(x)=     0.195130
   iter:   4  x=   -0.510569  g=    0.805795 f(x)=     0.068283
   iter:   5  x=   -0.548696  g=    0.448469 f(x)=     0.017099
   iter:   6  x=   -0.553889  g=    0.356175 f(x)=     0.001849
   iter:   7  x=   -0.553968  g=    0.345630 f(x)=     0.000028
   iter:   8  x=   -0.553968  g=    0.345471 f(x)=     0.000000
   iter:   9  x=   -0.553968  g=    0.345471 f(x)=     0.000000
The output lambda is                    ....    -0.553968 (9 iterations)
The final length of the internal step   ....  0.300000000
Converting the step to cartesian space:
 Initial RMS(Int)=    0.1732050808
Transforming coordinates:
 Iter   0:  RMS(Cart)=    0.0829444645 RMS(Int)=    0.1732032977
 Iter   1:  RMS(Cart)=    0.0000501089 RMS(Int)=    0.0000608522
 Iter   2:  RMS(Cart)=    0.0000042337 RMS(Int)=    0.0000051098
 Iter   3:  RMS(Cart)=    0.0000003557 RMS(Int)=    0.0000004293
 Iter   4:  RMS(Cart)=    0.0000000299 RMS(Int)=    0.0000000361
done
Storing new coordinates                 .... done

                                .--------------------.
          ----------------------|Geometry convergence|-------------------------
          Item                value                   Tolerance       Converged
          ---------------------------------------------------------------------
          Energy change      -0.0455289430            0.0000050000      NO
          RMS gradient        0.0902558311            0.0001000000      NO
          MAX gradient        0.1120395770            0.0003000000      NO
          RMS step            0.1732050808            0.0020000000      NO
          MAX step            0.2137975598            0.0040000000      NO
          ........................................................
          Max(Bonds)      0.1131      Max(Angles)    0.06
          Max(Dihed)        0.00      Max(Improp)    0.00
          ---------------------------------------------------------------------

The optimization has not yet converged - more geometry cycles are needed


    ---------------------------------------------------------------------------
                         Redundant Internal Coordinates
                            (Angstroem and degrees)

        Definition                    Value    dE/dq     Step     New-Value
    ----------------------------------------------------------------------------
     1. B(H   1,O   0)                1.4180  0.112040 -0.1131    1.3049   
     2. B(H   2,O   0)                1.4834  0.109006 -0.1114    1.3720   
     3. A(H   1,O   0,H   2)           92.89  0.001791   -0.06     92.83   
    ----------------------------------------------------------------------------

         *************************************************************
         *                GEOMETRY OPTIMIZATION CYCLE   4            *
         *************************************************************
---------------------------------
CARTESIAN COORDINATES (ANGSTROEM)
---------------------------------
  O     -3.176744    1.992888   -0.041325
  H     -2.039226    1.633163    0.487285
  H     -2.575540    2.465509   -1.180471

----------------------------
CARTESIAN COORDINATES (A.U.)
----------------------------
  NO LB      ZA    FRAG     MASS         X           Y           Z
   0 O     8.0000    0    15.999   -6.003176    3.766013   -0.078092
   1 H     1.0000    0     1.008   -3.853579    3.086231    0.920836
   2 H     1.0000    0     1.008   -4.867064    4.659136   -2.230767

--------------------------------
INTERNAL COORDINATES (ANGSTROEM)
--------------------------------
 O      0   0   0     0.000000000000     0.00000000     0.00000000
 H      1   0   0     1.304905215057     0.00000000     0.00000000
 H      1   2   0     1.372031700971    92.82683940     0.00000000

---------------------------
INTERNAL COORDINATES (A.U.)
---------------------------
 O      0   0   0     0.000000000000     0.00000000     0.00000000
 H      1   0   0     2.465913487183     0.00000000     0.00000000
 H      1   2   0     2.592764161893    92.82683940     0.00000000


Diagonalization of the overlap matrix:
Smallest eigenvalue                        ... 7.110e-02
Time for diagonalization                   ...    0.000 sec
Threshold for overlap eigenvalues          ... 1.000e-08
Number of eigenvalues below threshold      ... 0
Time for construction of square roots      ...    0.000 sec
Total time needed                          ...    0.000 sec

-------------------
DFT GRID GENERATION
-------------------

General Integration Accuracy     IntAcc      ...  4.340
Radial Grid Type                 RadialGrid  ... Gauss-Chebyshev
Angular Grid (max. acc.)         AngularGrid ... Lebedev-110
Angular grid pruning method      GridPruning ... 3 (G Style)
Weight generation scheme         WeightScheme... Becke
Basis function cutoff            BFCut       ...    1.0000e-11
Integration weight cutoff        WCut        ...    1.0000e-14
Grids for H and He will be reduced by one unit

# of grid points (after initial pruning)     ...   3304 (   0.0 sec)
# of grid points (after weights+screening)   ...   3298 (   0.0 sec)
nearest neighbour list constructed           ...    0.0 sec
Grid point re-assignment to atoms done       ...    0.0 sec
Grid point division into batches done        ...    0.0 sec
Reduced shell lists constructed in    0.0 sec

Total number of grid points                  ...     3298
Total number of batches                      ...       53
Average number of points per batch           ...       62
Average number of grid points per atom       ...     1099
Average number of shells per batch           ...    11.02 (91.82%)
Average number of basis functions per batch  ...    22.06 (91.90%)
Average number of large shells per batch     ...    10.48 (95.13%)
Average number of large basis fcns per batch ...    21.07 (95.55%)
Maximum spatial batch extension              ...  21.59, 21.59, 18.30 au
Average spatial batch extension              ...   5.95,  5.79,  5.23 au

Time for grid setup =    0.005 sec

--------------
SCF ITERATIONS
--------------
ITER       Energy         Delta-E        Max-DP      RMS-DP      [F,P]     Damp
               ***  Starting incremental Fock matrix formation  ***
  0    -76.2001706160   0.000000000000 0.00824431  0.00093447  0.0239129 0.7000
  1    -76.2009076325  -0.000737016516 0.00618769  0.00079783  0.0147812 0.7000
                               ***Turning on DIIS***
  2    -76.2013968574  -0.000489224840 0.01510707  0.00199031  0.0108229 0.0000
  3    -76.2025773826  -0.001180525214 0.00449364  0.00047141  0.0042190 0.0000
  4    -76.2025801673  -0.000002784690 0.00273418  0.00023467  0.0049376 0.0000
                      *** Initiating the SOSCF procedure ***
                           *** Shutting down DIIS ***
                      *** Re-Reading the Fockian *** 
                      *** Removing any level shift *** 
ITER      Energy       Delta-E        Grad      Rot      Max-DP    RMS-DP
  5    -76.20260702  -0.0000268536  0.000410  0.000410  0.001067  0.000099
               *** Restarting incremental Fock matrix formation ***
  6    -76.20260875  -0.0000017340  0.000097  0.000242  0.000250  0.000022
  7    -76.20260873   0.0000000258  0.000129  0.000149  0.000181  0.000015
  8    -76.20260880  -0.0000000709  0.000017  0.000033  0.000049  0.000005
                 **** Energy Check signals convergence ****
              ***Rediagonalizing the Fockian in SOSCF/NRSCF***

               *****************************************************
               *                     SUCCESS                       *
               *           SCF CONVERGED AFTER   9 CYCLES          *
               *****************************************************

Setting up the final grid:

General Integration Accuracy     IntAcc      ...  4.670
Radial Grid Type                 RadialGrid  ... Gauss-Chebyshev
Angular Grid (max. acc.)         AngularGrid ... Lebedev-302
Angular grid pruning method      GridPruning ... 3 (G Style)
Weight generation scheme         WeightScheme... Becke
Basis function cutoff            BFCut       ...    1.0000e-11
Integration weight cutoff        WCut        ...    1.0000e-14
Grids for H and He will be reduced by one unit

# of grid points (after initial pruning)     ...  13000 (   0.0 sec)
# of grid points (after weights+screening)   ...  12945 (   0.0 sec)
nearest neighbour list constructed           ...    0.0 sec
Grid point re-assignment to atoms done       ...    0.0 sec
Grid point division into batches done        ...    0.0 sec
Reduced shell lists constructed in    0.0 sec

Total number of grid points                  ...    12945
Total number of batches                      ...      204
Average number of points per batch           ...       63
Average number of grid points per atom       ...     4315
Average number of shells per batch           ...    10.09 (84.11%)
Average number of basis functions per batch  ...    20.12 (83.84%)
Average number of large shells per batch     ...     9.52 (94.30%)
Average number of large basis fcns per batch ...    18.98 (94.33%)
Maximum spatial batch extension              ...  16.97, 17.07, 16.88 au
Average spatial batch extension              ...   3.32,  3.52,  3.26 au

Final grid set up in    0.0 sec
Final integration                            ... done (   0.0 sec)
Change in XC energy                          ...     0.000017899
Integrated number of electrons               ...    10.000011694
Previous integrated no of electrons          ...    10.001415798
Total Energy       :          -76.20259090 Eh           -2073.57792 eV
  Last Energy change         ...   -1.6431e-09  Tolerance :   1.0000e-08
  Last MAX-Density change    ...    1.8808e-05  Tolerance :   1.0000e-07
             **** THE GBW FILE WAS UPDATED (optimisationDFTB3.gbw) ****
             **** DENSITY FILE WAS UPDATED (optimisationDFTB3.scfp) ****
             **** ENERGY FILE WAS UPDATED (optimisationDFTB3.en.tmp) ****
             **** THE GBW FILE WAS UPDATED (optimisationDFTB3.gbw) ****
             **** DENSITY FILE WAS UPDATED (optimisationDFTB3.scfp) ****
Total SCF time: 0 days 0 hours 0 min 0 sec 

-------------------------   --------------------
FINAL SINGLE POINT ENERGY       -76.202590902699
-------------------------   --------------------

------------------------------------------------------------------------------
                         ORCA SCF GRADIENT CALCULATION
------------------------------------------------------------------------------

Gradient of the Kohn-Sham DFT energy:
Kohn-Sham wavefunction type      ... RKS
Hartree-Fock exchange scaling    ...    0.200
Number of operators              ...    1
Number of atoms                  ...    3
Basis set dimensions             ...   24
Integral neglect threshold       ... 2.5e-11
Integral primitive cutoff        ... 2.5e-12

Nuclear repulsion gradient       ... done
One Electron Gradient            ... done
Pre-screening matrix             ... done
Starting the two electron gradient:
Two electron gradient done
Exchange-correlation gradient    ... done

------------------
CARTESIAN GRADIENT
------------------

   1   O   :   -0.149017938   -0.007984737    0.048751896
   2   H   :    0.098915418   -0.031077216    0.045556426
   3   H   :    0.050102520    0.039061953   -0.094308322

Difference to translation invariance:
           :    0.0000000000   -0.0000000000    0.0000000000

Norm of the cartesian gradient     ...    0.2245048972
RMS gradient                       ...    0.0748349657
MAX gradient                       ...    0.1490179380

-------
TIMINGS
-------

Total SCF gradient time            ...        0.131 sec

One electron gradient       ....       0.001 sec  (  0.4%)
Prescreening matrices       ....       0.001 sec  (  1.0%)
Two electron gradient       ....       0.008 sec  (  5.7%)
XC gradient                 ....       0.053 sec  ( 40.5%)
------------------------------------------------------------------------------
                         ORCA GEOMETRY RELAXATION STEP
------------------------------------------------------------------------------

Reading the OPT-File                    .... done
Getting information on internals        .... done
Copying old internal coords+grads       .... done
Making the new internal coordinates     .... (new redundants).... done
Validating the new internal coordinates .... (new redundants).... done
Calculating the B-matrix                .... done
Calculating the G,G- and P matrices     .... done
Transforming gradient to internals      .... done
Projecting the internal gradient        .... done
Number of atoms                         ....   3
Number of internal coordinates          ....   3
Current Energy                          ....   -76.202590903 Eh
Current gradient norm                   ....     0.224504897 Eh/bohr
Maximum allowed component of the step   ....  0.300
Current trust radius                    ....  0.300
Updating the Hessian (BFGS)             .... done
Forming the augmented Hessian           .... done
Diagonalizing the augmented Hessian     .... done
Last element of RFO vector              ....  0.690370007
Lowest eigenvalues of augmented Hessian:
 -0.167988439  0.031806921  0.148458264
Length of the computed step             ....  1.047925685
Warning: the length of the step is outside the trust region - taking restricted step instead
The input lambda is                     ....    -0.167988
   iter:   1  x=   -0.238096  g=   14.380020 f(x)=     1.008148
   iter:   2  x=   -0.330166  g=    4.627605 f(x)=     0.426063
   iter:   3  x=   -0.432943  g=    1.640478 f(x)=     0.168603
   iter:   4  x=   -0.514101  g=    0.703496 f(x)=     0.057094
   iter:   5  x=   -0.545972  g=    0.413159 f(x)=     0.013168
   iter:   6  x=   -0.549357  g=    0.343159 f(x)=     0.001162
   iter:   7  x=   -0.549390  g=    0.336682 f(x)=     0.000011
   iter:   8  x=   -0.549390  g=    0.336620 f(x)=     0.000000
   iter:   9  x=   -0.549390  g=    0.336620 f(x)=     0.000000
The output lambda is                    ....    -0.549390 (9 iterations)
The final length of the internal step   ....  0.300000000
Converting the step to cartesian space:
 Initial RMS(Int)=    0.1732050808
Transforming coordinates:
 Iter   0:  RMS(Cart)=    0.0814760203 RMS(Int)=    0.1732025617
 Iter   1:  RMS(Cart)=    0.0002191328 RMS(Int)=    0.0002854255
 Iter   2:  RMS(Cart)=    0.0000201963 RMS(Int)=    0.0000261481
 Iter   3:  RMS(Cart)=    0.0000018469 RMS(Int)=    0.0000023925
 Iter   4:  RMS(Cart)=    0.0000001690 RMS(Int)=    0.0000002189
 Iter   5:  RMS(Cart)=    0.0000000155 RMS(Int)=    0.0000000200
done
Storing new coordinates                 .... done

                                .--------------------.
          ----------------------|Geometry convergence|-------------------------
          Item                value                   Tolerance       Converged
          ---------------------------------------------------------------------
          Energy change      -0.0477335841            0.0000050000      NO
          RMS gradient        0.0926570306            0.0001000000      NO
          MAX gradient        0.1137271402            0.0003000000      NO
          RMS step            0.1732050808            0.0020000000      NO
          MAX step            0.2154892194            0.0040000000      NO
          ........................................................
          Max(Bonds)      0.1140      Max(Angles)    0.28
          Max(Dihed)        0.00      Max(Improp)    0.00
          ---------------------------------------------------------------------

The optimization has not yet converged - more geometry cycles are needed


    ---------------------------------------------------------------------------
                         Redundant Internal Coordinates
                            (Angstroem and degrees)

        Definition                    Value    dE/dq     Step     New-Value
    ----------------------------------------------------------------------------
     1. B(H   1,O   0)                1.3049  0.113231 -0.1104    1.1945   
     2. B(H   2,O   0)                1.3720  0.113727 -0.1140    1.2580   
     3. A(H   1,O   0,H   2)           92.83 -0.000902    0.28     93.11   
    ----------------------------------------------------------------------------

         *************************************************************
         *                GEOMETRY OPTIMIZATION CYCLE   5            *
         *************************************************************
---------------------------------
CARTESIAN COORDINATES (ANGSTROEM)
---------------------------------
  O     -3.126548    1.995827   -0.058264
  H     -2.086553    1.665672    0.427745
  H     -2.578409    2.430062   -1.103992

----------------------------
CARTESIAN COORDINATES (A.U.)
----------------------------
  NO LB      ZA    FRAG     MASS         X           Y           Z
   0 O     8.0000    0    15.999   -5.908319    3.771566   -0.110102
   1 H     1.0000    0     1.008   -3.943014    3.147663    0.808322
   2 H     1.0000    0     1.008   -4.872487    4.592151   -2.086242

--------------------------------
INTERNAL COORDINATES (ANGSTROEM)
--------------------------------
 O      0   0   0     0.000000000000     0.00000000     0.00000000
 H      1   0   0     1.194485964427     0.00000000     0.00000000
 H      1   2   0     1.257999717384    93.11047473     0.00000000

---------------------------
INTERNAL COORDINATES (A.U.)
---------------------------
 O      0   0   0     0.000000000000     0.00000000     0.00000000
 H      1   0   0     2.257251343581     0.00000000     0.00000000
 H      1   2   0     2.377274942406    93.11047473     0.00000000


Diagonalization of the overlap matrix:
Smallest eigenvalue                        ... 5.838e-02
Time for diagonalization                   ...    0.000 sec
Threshold for overlap eigenvalues          ... 1.000e-08
Number of eigenvalues below threshold      ... 0
Time for construction of square roots      ...    0.000 sec
Total time needed                          ...    0.000 sec

-------------------
DFT GRID GENERATION
-------------------

General Integration Accuracy     IntAcc      ...  4.340
Radial Grid Type                 RadialGrid  ... Gauss-Chebyshev
Angular Grid (max. acc.)         AngularGrid ... Lebedev-110
Angular grid pruning method      GridPruning ... 3 (G Style)
Weight generation scheme         WeightScheme... Becke
Basis function cutoff            BFCut       ...    1.0000e-11
Integration weight cutoff        WCut        ...    1.0000e-14
Grids for H and He will be reduced by one unit

# of grid points (after initial pruning)     ...   3304 (   0.0 sec)
# of grid points (after weights+screening)   ...   3295 (   0.0 sec)
nearest neighbour list constructed           ...    0.0 sec
Grid point re-assignment to atoms done       ...    0.0 sec
Grid point division into batches done        ...    0.0 sec
Reduced shell lists constructed in    0.0 sec

Total number of grid points                  ...     3295
Total number of batches                      ...       53
Average number of points per batch           ...       62
Average number of grid points per atom       ...     1098
Average number of shells per batch           ...    11.06 (92.13%)
Average number of basis functions per batch  ...    22.17 (92.36%)
Average number of large shells per batch     ...    10.59 (95.81%)
Average number of large basis fcns per batch ...    21.22 (95.74%)
Maximum spatial batch extension              ...  21.59, 21.59, 18.30 au
Average spatial batch extension              ...   5.95,  5.73,  5.31 au

Time for grid setup =    0.005 sec

--------------
SCF ITERATIONS
--------------
ITER       Energy         Delta-E        Max-DP      RMS-DP      [F,P]     Damp
               ***  Starting incremental Fock matrix formation  ***
  0    -76.2467669003   0.000000000000 0.00856146  0.00114031  0.0258378 0.7000
  1    -76.2477572962  -0.000990395907 0.00735961  0.00097304  0.0176446 0.7000
                               ***Turning on DIIS***
  2    -76.2484395141  -0.000682217951 0.01840161  0.00242028  0.0127102 0.0000
  3    -76.2500671609  -0.001627646801 0.00539492  0.00050620  0.0051760 0.0000
  4    -76.2500811487  -0.000013987723 0.00295381  0.00025838  0.0049734 0.0000
                      *** Initiating the SOSCF procedure ***
                           *** Shutting down DIIS ***
                      *** Re-Reading the Fockian *** 
[...]
INTERNAL COORDINATES (ANGSTROEM)
--------------------------------
 O      0   0   0     0.000000000000     0.00000000     0.00000000
 H      1   0   0     0.967001088362     0.00000000     0.00000000
 H      1   2   0     0.966889363822   103.08680918     0.00000000

---------------------------
INTERNAL COORDINATES (A.U.)
---------------------------
 O      0   0   0     0.000000000000     0.00000000     0.00000000
 H      1   0   0     1.827367228208     0.00000000     0.00000000
 H      1   2   0     1.827156099426   103.08680918     0.00000000

---------------------
BASIS SET INFORMATION
---------------------
There are 2 groups of distinct atoms

 Group   1 Type O   : 7s4p1d contracted to 3s2p1d pattern {511/31/1}
 Group   2 Type H   : 4s1p contracted to 2s1p pattern {31/1}

Atom   0O    basis set group =>   1
Atom   1H    basis set group =>   2
Atom   2H    basis set group =>   2
------------------------------------------------------------------------------
                           ORCA GTO INTEGRAL CALCULATION
------------------------------------------------------------------------------

                         BASIS SET STATISTICS AND STARTUP INFO

 # of primitive gaussian shells          ...   22
 # of primitive gaussian functions       ...   38
 # of contracted shells                  ...   12
 # of contracted basis functions         ...   24
 Highest angular momentum                ...    2
 Maximum contraction depth               ...    5
 Integral package used                   ... LIBINT
 Integral threshhold            Thresh   ...  2.500e-11
 Primitive cut-off              TCut     ...  2.500e-12


------------------------------ INTEGRAL EVALUATION ----------------------------


 * One electron integrals 
 Pre-screening matrix                    ... done
 Shell pair data                         ... done (   0.000 sec)

-------------------------------------------------------------------------------
                                 ORCA SCF
-------------------------------------------------------------------------------

------------
SCF SETTINGS
------------
Hamiltonian:
 Density Functional     Method          .... DFT(GTOs)
 Exchange Functional    Exchange        .... B88
   X-Alpha parameter    XAlpha          ....  0.666667
   Becke's b parameter  XBeta           ....  0.004200
 Correlation Functional Correlation     .... LYP
 LDA part of GGA corr.  LDAOpt          .... VWN-5
 Gradients option       PostSCFGGA      .... off
 Hybrid DFT is turned on
   Fraction HF Exchange ScalHFX         ....  0.200000
   Scaling of DF-GGA-X  ScalDFX         ....  0.720000
   Scaling of DF-GGA-C  ScalDFC         ....  0.810000
   Scaling of DF-LDA-C  ScalLDAC        ....  1.000000
   Perturbative correction              ....  0.000000
   Density functional embedding theory  .... OFF
   NL short-range parameter             ....  4.800000


General Settings:
 Integral files         IntName         .... optimisationDFTB3
 Hartree-Fock type      HFTyp           .... RHF
 Total Charge           Charge          ....    0
 Multiplicity           Mult            ....    1
 Number of Electrons    NEL             ....   10
 Basis Dimension        Dim             ....   24
 Nuclear Repulsion      ENuc            ....      9.1057045309 Eh

Convergence Acceleration:
 DIIS                   CNVDIIS         .... on
   Start iteration      DIISMaxIt       ....    12
   Startup error        DIISStart       ....  0.200000
   # of expansion vecs  DIISMaxEq       ....     5
   Bias factor          DIISBfac        ....   1.050
   Max. coefficient     DIISMaxC        ....  10.000
 Newton-Raphson         CNVNR           .... off
 SOSCF                  CNVSOSCF        .... on
   Start iteration      SOSCFMaxIt      ....   150
   Startup grad/error   SOSCFStart      ....  0.003300
 Level Shifting         CNVShift        .... on
   Level shift para.    LevelShift      ....    0.2500
   Turn off err/grad.   ShiftErr        ....    0.0010
 Zerner damping         CNVZerner       .... off
 Static damping         CNVDamp         .... on
   Fraction old density DampFac         ....    0.7000
   Max. Damping (<1)    DampMax         ....    0.9800
   Min. Damping (>=0)   DampMin         ....    0.0000
   Turn off err/grad.   DampErr         ....    0.1000
 Fernandez-Rico         CNVRico         .... off

SCF Procedure:
 Maximum # iterations   MaxIter         ....   125
 SCF integral mode      SCFMode         .... Direct
   Integral package                     .... LIBINT
 Reset frequency        DirectResetFreq ....    20
 Integral Threshold     Thresh          ....  2.500e-11 Eh
 Primitive CutOff       TCut            ....  2.500e-12 Eh

Convergence Tolerance:
 Convergence Check Mode ConvCheckMode   .... Total+1el-Energy
 Convergence forced     ConvForced      .... 0
 Energy Change          TolE            ....  1.000e-08 Eh
 1-El. energy change                    ....  1.000e-05 Eh
 Orbital Gradient       TolG            ....  1.000e-05
 Orbital Rotation angle TolX            ....  1.000e-05
 DIIS Error             TolErr          ....  5.000e-07


Diagonalization of the overlap matrix:
Smallest eigenvalue                        ... 3.795e-02
Time for diagonalization                   ...    0.000 sec
Threshold for overlap eigenvalues          ... 1.000e-08
Number of eigenvalues below threshold      ... 0
Time for construction of square roots      ...    0.000 sec
Total time needed                          ...    0.000 sec

---------------------
INITIAL GUESS: MOREAD
---------------------
Guess MOs are being read from file: optimisationDFTB3.gbw
Input Geometry matches current geometry (good)
Input basis set matches current basis set (good)
MOs were renormalized
MOs were reorthogonalized (Cholesky)
                      ------------------
                      INITIAL GUESS DONE (   0.0 sec)
                      ------------------
-------------------
DFT GRID GENERATION
-------------------

General Integration Accuracy     IntAcc      ...  4.340
Radial Grid Type                 RadialGrid  ... Gauss-Chebyshev
Angular Grid (max. acc.)         AngularGrid ... Lebedev-110
Angular grid pruning method      GridPruning ... 3 (G Style)
Weight generation scheme         WeightScheme... Becke
Basis function cutoff            BFCut       ...    1.0000e-11
Integration weight cutoff        WCut        ...    1.0000e-14
Grids for H and He will be reduced by one unit

# of grid points (after initial pruning)     ...   3304 (   0.0 sec)
# of grid points (after weights+screening)   ...   3287 (   0.0 sec)
nearest neighbour list constructed           ...    0.0 sec
Grid point re-assignment to atoms done       ...    0.0 sec
Grid point division into batches done        ...    0.0 sec
Reduced shell lists constructed in    0.0 sec

Total number of grid points                  ...     3287
Total number of batches                      ...       53
Average number of points per batch           ...       62
Average number of grid points per atom       ...     1096
Average number of shells per batch           ...    11.22 (93.52%)
Average number of basis functions per batch  ...    22.48 (93.67%)
Average number of large shells per batch     ...    10.70 (95.38%)
Average number of large basis fcns per batch ...    21.37 (95.06%)
Maximum spatial batch extension              ...  21.59, 21.59, 18.30 au
Average spatial batch extension              ...   6.00,  5.88,  5.09 au

Time for grid setup =    0.005 sec

--------------
SCF ITERATIONS
--------------
ITER       Energy         Delta-E        Max-DP      RMS-DP      [F,P]     Damp
               ***  Starting incremental Fock matrix formation  ***
                      *** Initiating the SOSCF procedure ***
                      *** Re-Reading the Fockian *** 
                      *** Removing any level shift *** 
ITER      Energy       Delta-E        Grad      Rot      Max-DP    RMS-DP
  0    -76.32145190 -76.3214519045  0.000026  0.000026  0.000051  0.000005
               *** Restarting incremental Fock matrix formation ***
  1    -76.32145191  -0.0000000041  0.000010  0.000009  0.000023  0.000002
  2    -76.32145191  -0.0000000001  0.000011  0.000006  0.000011  0.000001
                 **** Energy Check signals convergence ****
              ***Rediagonalizing the Fockian in SOSCF/NRSCF***

               *****************************************************
               *                     SUCCESS                       *
               *           SCF CONVERGED AFTER   3 CYCLES          *
               *****************************************************

Setting up the final grid:

General Integration Accuracy     IntAcc      ...  4.670
Radial Grid Type                 RadialGrid  ... Gauss-Chebyshev
Angular Grid (max. acc.)         AngularGrid ... Lebedev-302
Angular grid pruning method      GridPruning ... 3 (G Style)
Weight generation scheme         WeightScheme... Becke
Basis function cutoff            BFCut       ...    1.0000e-11
Integration weight cutoff        WCut        ...    1.0000e-14
Grids for H and He will be reduced by one unit

# of grid points (after initial pruning)     ...  13000 (   0.0 sec)
# of grid points (after weights+screening)   ...  12914 (   0.0 sec)
nearest neighbour list constructed           ...    0.0 sec
Grid point re-assignment to atoms done       ...    0.0 sec
Grid point division into batches done        ...    0.0 sec
Reduced shell lists constructed in    0.0 sec

Total number of grid points                  ...    12914
Total number of batches                      ...      204
Average number of points per batch           ...       63
Average number of grid points per atom       ...     4305
Average number of shells per batch           ...    10.28 (85.69%)
Average number of basis functions per batch  ...    20.44 (85.16%)
Average number of large shells per batch     ...     9.68 (94.17%)
Average number of large basis fcns per batch ...    19.30 (94.44%)
Maximum spatial batch extension              ...  17.08, 17.19, 16.19 au
Average spatial batch extension              ...   3.29,  3.54,  3.11 au

Final grid set up in    0.0 sec
Final integration                            ... done (   0.0 sec)
Change in XC energy                          ...     0.000288395
Integrated number of electrons               ...    10.000011414
Previous integrated no of electrons          ...    10.002218840

----------------
TOTAL SCF ENERGY
----------------

Total Energy       :          -76.32116351 Eh           -2076.80444 eV

Components:
Nuclear Repulsion  :            9.10570453 Eh             247.77882 eV
Electronic Energy  :          -85.42686804 Eh           -2324.58326 eV
One Electron Energy:         -122.95524022 Eh           -3345.78218 eV
Two Electron Energy:           37.52837217 Eh            1021.19892 eV

Virial components:
Potential Energy   :         -152.15130408 Eh           -4140.24747 eV
Kinetic Energy     :           75.83014057 Eh            2063.44303 eV
Virial Ratio       :            2.00647530


DFT components:
N(Alpha)           :        5.000005707085 electrons
N(Beta)            :        5.000005707085 electrons
N(Total)           :       10.000011414171 electrons
E(X)               :       -7.121792663767 Eh       
E(C)               :       -0.402186166256 Eh       
E(XC)              :       -7.523978830023 Eh       
DFET-embed. en.    :        0.000000000000 Eh       

---------------
SCF CONVERGENCE
---------------

  Last Energy change         ...   -3.6167e-10  Tolerance :   1.0000e-08
  Last MAX-Density change    ...    1.5088e-06  Tolerance :   1.0000e-07
  Last RMS-Density change    ...    1.8088e-07  Tolerance :   5.0000e-09
  Last Orbital Gradient      ...    8.3990e-07  Tolerance :   1.0000e-05
  Last Orbital Rotation      ...    1.1356e-06  Tolerance :   1.0000e-05

             **** THE GBW FILE WAS UPDATED (optimisationDFTB3.gbw) ****
             **** DENSITY FILE WAS UPDATED (optimisationDFTB3.scfp) ****
             **** ENERGY FILE WAS UPDATED (optimisationDFTB3.en.tmp) ****
             **** THE GBW FILE WAS UPDATED (optimisationDFTB3.gbw) ****
             **** DENSITY FILE WAS UPDATED (optimisationDFTB3.scfp) ****
----------------
ORBITAL ENERGIES
----------------

  NO   OCC          E(Eh)            E(eV) 
   0   2.0000     -19.116515      -520.1868 
   1   2.0000      -0.976261       -26.5654 
   2   2.0000      -0.508040       -13.8245 
   3   2.0000      -0.364413        -9.9162 
   4   2.0000      -0.288531        -7.8513 
   5   0.0000       0.047719         1.2985 
   6   0.0000       0.126998         3.4558 
   7   0.0000       0.558216        15.1898 
   8   0.0000       0.623375        16.9629 
   9   0.0000       0.920332        25.0435 
  10   0.0000       0.922245        25.0956 
  11   0.0000       1.008874        27.4529 
  12   0.0000       1.097422        29.8624 
  13   0.0000       1.351061        36.7642 
  14   0.0000       1.397958        38.0404 
  15   0.0000       1.544988        42.0413 
  16   0.0000       1.789433        48.6930 
  17   0.0000       2.201626        59.9093 
  18   0.0000       2.248775        61.1923 
  19   0.0000       2.964084        80.6568 
  20   0.0000       3.000365        81.6441 
  21   0.0000       3.187912        86.7475 
  22   0.0000       3.485496        94.8452 
  23   0.0000       3.823014       104.0295 

                    ********************************
                    * MULLIKEN POPULATION ANALYSIS *
                    ********************************

-----------------------
MULLIKEN ATOMIC CHARGES
-----------------------
   0 O :   -0.295993
   1 H :    0.147914
   2 H :    0.148079
Sum of atomic charges:    0.0000000

--------------------------------
MULLIKEN REDUCED ORBITAL CHARGES
--------------------------------
  0 O s       :     3.687459  s :     3.687459
      pz      :     1.320954  p :     4.597604
      px      :     1.467862
      py      :     1.808787
      dz2     :     0.001483  d :     0.010930
      dxz     :     0.004305
      dyz     :     0.000728
      dx2y2   :     0.002324
      dxy     :     0.002091
  1 H s       :     0.781814  s :     0.781814
      pz      :     0.022044  p :     0.070273
      px      :     0.027265
      py      :     0.020964
  2 H s       :     0.781748  s :     0.781748
      pz      :     0.030716  p :     0.070173
      px      :     0.017832
      py      :     0.021625


                     *******************************
                     * LOEWDIN POPULATION ANALYSIS *
                     *******************************

----------------------
LOEWDIN ATOMIC CHARGES
----------------------
   0 O :   -0.150953
   1 H :    0.075482
   2 H :    0.075471

-------------------------------
LOEWDIN REDUCED ORBITAL CHARGES
-------------------------------
  0 O s       :     3.440040  s :     3.440040
      pz      :     1.378200  p :     4.690803
      px      :     1.542619
      py      :     1.769983
      dz2     :     0.003293  d :     0.020110
      dxz     :     0.008356
      dyz     :     0.002306
      dx2y2   :     0.003355
      dxy     :     0.002800
  1 H s       :     0.749689  s :     0.749689
      pz      :     0.044238  p :     0.174829
      px      :     0.076908
      py      :     0.053682
  2 H s       :     0.749655  s :     0.749655
      pz      :     0.073391  p :     0.174874
      px      :     0.045571
      py      :     0.055913


                      *****************************
                      * MAYER POPULATION ANALYSIS *
                      *****************************

  NA   - Mulliken gross atomic population
  ZA   - Total nuclear charge
  QA   - Mulliken gross atomic charge
  VA   - Mayer's total valence
  BVA  - Mayer's bonded valence
  FA   - Mayer's free valence

  ATOM       NA         ZA         QA         VA         BVA        FA
  0 O      8.2960     8.0000    -0.2960     2.0154     2.0154     0.0000
  1 H      0.8521     1.0000     0.1479     1.0134     1.0134     0.0000
  2 H      0.8519     1.0000     0.1481     1.0129     1.0129     0.0000

  Mayer bond orders larger than 0.100000
B(  0-O ,  1-H ) :   1.0079 B(  0-O ,  2-H ) :   1.0075 

-------
TIMINGS
-------

Total SCF time: 0 days 0 hours 0 min 0 sec 

Total time                  ....       0.494 sec
Sum of individual times     ....       0.372 sec  ( 75.3%)

Fock matrix formation       ....       0.326 sec  ( 65.9%)
  XC integration            ....       0.032 sec  (  9.8% of F)
    Basis function eval.    ....       0.009 sec  ( 28.4% of XC)
    Density eval.           ....       0.007 sec  ( 21.7% of XC)
    XC-Functional eval.     ....       0.008 sec  ( 23.9% of XC)
    XC-Potential eval.      ....       0.004 sec  ( 13.8% of XC)
Diagonalization             ....       0.000 sec  (  0.0%)
Density matrix formation    ....       0.000 sec  (  0.0%)
Population analysis         ....       0.001 sec  (  0.1%)
Initial guess               ....       0.001 sec  (  0.2%)
Orbital Transformation      ....       0.000 sec  (  0.0%)
Orbital Orthonormalization  ....       0.000 sec  (  0.0%)
DIIS solution               ....       0.000 sec  (  0.0%)
SOSCF solution              ....       0.000 sec  (  0.1%)
Grid generation             ....       0.045 sec  (  9.0%)

-------------------------   --------------------
FINAL SINGLE POINT ENERGY       -76.321163513628
-------------------------   --------------------

                                *** OPTIMIZATION RUN DONE ***

                            ***************************************
                            *     ORCA property calculations      *
                            ***************************************

                                    ---------------------
                                    Active property flags
                                    ---------------------
   (+) Dipole Moment


------------------------------------------------------------------------------
                       ORCA ELECTRIC PROPERTIES CALCULATION
------------------------------------------------------------------------------

Dipole Moment Calculation                       ... on
Quadrupole Moment Calculation                   ... off
Polarizability Calculation                      ... off
GBWName                                         ... optimisationDFTB3.gbw
Electron density file                           ... optimisationDFTB3.scfp
The origin for moment calculation is the CENTER OF MASS  = (-5.509128,  3.809022 -0.274968)

-------------
DIPOLE MOMENT
-------------
                                X             Y             Z
Electronic contribution:     -0.20172      -0.00967       0.06300
Nuclear contribution   :      0.95466       0.04463      -0.29807
                        -----------------------------------------
Total Dipole Moment    :      0.75294       0.03496      -0.23507
                        -----------------------------------------
Magnitude (a.u.)       :      0.78955
Magnitude (Debye)      :      2.00689



--------------------
Rotational spectrum 
--------------------
 
Rotational constants in cm-1:    26.035912    14.584478     9.348019 
Rotational constants in MHz : 780537.009547 437231.646509 280246.564196 

 Dipole components along the rotational axes: 
x,y,z [a.u.] :     0.000330    -0.789554     0.000212 
x,y,z [Debye]:     0.000838    -2.006887     0.000540 

 

Timings for individual modules:

Sum of individual times         ...       18.656 sec (=   0.311 min)
GTO integral calculation        ...        2.507 sec (=   0.042 min)  13.4 %
SCF iterations                  ...       13.597 sec (=   0.227 min)  72.9 %
SCF Gradient evaluation         ...        2.140 sec (=   0.036 min)  11.5 %
Geometry relaxation             ...        0.412 sec (=   0.007 min)   2.2 %
                             ****ORCA TERMINATED NORMALLY****
TOTAL RUN TIME: 0 days 0 hours 0 minutes 18 seconds 872 msec
