
                                 *****************
                                 * O   R   C   A *
                                 *****************

           --- An Ab Initio, DFT and Semiempirical electronic structure package ---

                  #######################################################
                  #                        -***-                        #
                  #          Department of theory and spectroscopy      #
                  #               Directorship: Frank Neese             #
                  #        Max Planck Institute fuer Kohlenforschung    #
                  #                Kaiser Wilhelm Platz 1               #
                  #                 D-45470 Muelheim/Ruhr               #
                  #                      Germany                        #
                  #                                                     #
                  #                  All rights reserved                #
                  #                        -***-                        #
                  #######################################################


                         Program Version 4.2.1 -  RELEASE  -


 With contributions from (in alphabetic order):
   Daniel Aravena         : Magnetic Suceptibility
   Michael Atanasov       : Ab Initio Ligand Field Theory (pilot matlab implementation)
   Alexander A. Auer      : GIAO ZORA, VPT2
   Ute Becker             : Parallelization
   Giovanni Bistoni       : ED, misc. LED, open-shell LED, HFLD
   Martin Brehm           : Molecular dynamics
   Dmytro Bykov           : SCF Hessian
   Vijay G. Chilkuri      : MRCI spin determinant printing, contributions to CSF-ICE
   Dipayan Datta          : RHF DLPNO-CCSD density
   Achintya Kumar Dutta   : EOM-CC, STEOM-CC
   Dmitry Ganyushin       : Spin-Orbit,Spin-Spin,Magnetic field MRCI
   Miquel Garcia          : C-PCM Hessian, Gaussian charge scheme
   Yang Guo               : DLPNO-NEVPT2, CIM, IAO-localization
   Andreas Hansen         : Spin unrestricted coupled pair/coupled cluster methods
   Benjamin Helmich-Paris : CASSCF linear response (MC-RPA)
   Lee Huntington         : MR-EOM, pCC
   Robert Izsak           : Overlap fitted RIJCOSX, COSX-SCS-MP3, EOM
   Christian Kollmar      : KDIIS, OOCD, Brueckner-CCSD(T), CCSD density
   Simone Kossmann        : Meta GGA functionals, TD-DFT gradient, OOMP2, MP2 Hessian
   Martin Krupicka        : AUTO-CI
   Lucas Lang             : DCDCAS
   Dagmar Lenk            : GEPOL surface, SMD
   Dimitrios Liakos       : Extrapolation schemes; Compound Job, initial MDCI parallelization
   Dimitrios Manganas     : Further ROCIS development; embedding schemes
   Dimitrios Pantazis     : SARC Basis sets
   Taras Petrenko         : DFT Hessian,TD-DFT gradient, ASA, ECA, R-Raman, ABS, FL, XAS/XES, NRVS
   Peter Pinski           : DLPNO-MP2, DLPNO-MP2 Gradient
   Christoph Reimann      : Effective Core Potentials
   Marius Retegan         : Local ZFS, SOC
   Christoph Riplinger    : Optimizer, TS searches, QM/MM, DLPNO-CCSD(T), (RO)-DLPNO pert. Triples
   Tobias Risthaus        : Range-separated hybrids, TD-DFT gradient, RPA, STAB
   Michael Roemelt        : Original ROCIS implementation
   Masaaki Saitow         : Open-shell DLPNO-CCSD energy and density
   Barbara Sandhoefer     : DKH picture change effects
   Avijit Sen             : IP-ROCIS
   Kantharuban Sivalingam : CASSCF convergence, NEVPT2, FIC-MRCI
   Bernardo de Souza      : ESD, SOC TD-DFT
   Georgi Stoychev        : AutoAux, RI-MP2 NMR
   Willem Van den Heuvel  : Paramagnetic NMR
   Boris Wezisla          : Elementary symmetry handling
   Frank Wennmohs         : Technical directorship


 We gratefully acknowledge several colleagues who have allowed us to
 interface, adapt or use parts of their codes:
   Stefan Grimme, W. Hujo, H. Kruse,             : VdW corrections, initial TS optimization,
                  C. Bannwarth                     DFT functionals, gCP, sTDA/sTD-DF
   Ed Valeev, F. Pavosevic, A. Kumar             : LibInt (2-el integral package), F12 methods
   Garnet Chan, S. Sharma, J. Yang, R. Olivares  : DMRG
   Ulf Ekstrom                                   : XCFun DFT Library
   Mihaly Kallay                                 : mrcc  (arbitrary order and MRCC methods)
   Andreas Klamt, Michael Diedenhofen            : otool_cosmo (COSMO solvation model)
   Jiri Pittner, Ondrej Demel                    : Mk-CCSD
   Frank Weinhold                                : gennbo (NPA and NBO analysis)
   Christopher J. Cramer and Donald G. Truhlar   : smd solvation model
   Lars Goerigk                                  : TD-DFT with DH, B97 family of functionals
   V. Asgeirsson, H. Jonsson                     : NEB implementation
   FAccTs GmbH                                   : IRC, NEB, NEB-TS, Multilevel, MM, QM/MM, CI optimization
   S Lehtola, MJT Oliveira, MAL Marques          : LibXC Library


 Your calculation uses the libint2 library for the computation of 2-el integrals
 For citations please refer to: http://libint.valeyev.net

 Your ORCA version has been built with support for libXC version: 4.2.3
 For citations please refer to: https://tddft.org/programs/libxc/

 This ORCA versions uses:
   CBLAS   interface :  Fast vector & matrix operations
   LAPACKE interface :  Fast linear algebra routines
   SCALAPACK package :  Parallel linear algebra routines




***************************************
The coordinates will be read from file: ../single_point_energy/water/water.xyz
***************************************


Your calculation utilizes the atom-pairwise dispersion correction
with the Becke-Johnson damping scheme (D3BJ)
Cite in your paper:
S.Grimme, S.Ehrlich, L.Goerigk, J Comput Chem, (2011), 32, 1456–1465 
S.Grimme, J.Antony, S.Ehrlich and H.Krieg, J.Chem.Phys., 132, (2010), 154104 
   

----- Orbital basis set information -----
Your calculation utilizes the basis: def2-SVP
   F. Weigend and R. Ahlrichs, Phys. Chem. Chem. Phys. 7, 3297 (2005).

================================================================================
                                        WARNINGS
                       Please study these warnings very carefully!
================================================================================


WARNING: Geometry Optimization
  ===> : Switching off AutoStart
         For restart on a previous wavefunction, please use MOREAD

INFO   : the flag for use of LIBINT has been found!

================================================================================
                                       INPUT FILE
================================================================================
NAME = waterDFTB3D3.txt
|  1> ! DFT B3LYP D3 Opt
|  2> 
|  3> *xyzfile 0 1 ../single_point_energy/water/water.xyz
|  4> %base "optimisationDFTB3D3""                         ****END OF INPUT****
================================================================================

                       *****************************
                       * Geometry Optimization Run *
                       *****************************

Geometry optimization settings:
Update method            Update   .... BFGS
Choice of coordinates    CoordSys .... Z-matrix Internals
Initial Hessian          InHess   .... Almoef's Model

Convergence Tolerances:
Energy Change            TolE     ....  5.0000e-06 Eh
Max. Gradient            TolMAXG  ....  3.0000e-04 Eh/bohr
RMS Gradient             TolRMSG  ....  1.0000e-04 Eh/bohr
Max. Displacement        TolMAXD  ....  4.0000e-03 bohr
RMS Displacement         TolRMSD  ....  2.0000e-03 bohr
Strict Convergence                ....  False
------------------------------------------------------------------------------
                        ORCA OPTIMIZATION COORDINATE SETUP
------------------------------------------------------------------------------

The optimization will be done in new redundant internal coordinates
Making redundant internal coordinates   ...  (new redundants) done
Evaluating the initial hessian          ...  (Almloef) done
Evaluating the coordinates              ...  done
Calculating the B-matrix                .... done
Calculating the G-matrix                .... done
Diagonalizing the G-matrix              .... done
The first mode is                       ....    0
The number of degrees of freedom        ....    3

    -----------------------------------------------------------------
                    Redundant Internal Coordinates


    -----------------------------------------------------------------
         Definition                    Initial Value    Approx d2E/dq
    -----------------------------------------------------------------
      1. B(H   1,O   0)                  1.6462         0.041797   
      2. B(H   2,O   0)                  1.7040         0.033798   
      3. A(H   1,O   0,H   2)           93.7019         0.159887   
    -----------------------------------------------------------------

Number of atoms                         .... 3
Number of degrees of freedom            .... 3

         *************************************************************
         *                GEOMETRY OPTIMIZATION CYCLE   1            *
         *************************************************************
---------------------------------
CARTESIAN COORDINATES (ANGSTROEM)
---------------------------------
  O     -3.319480    1.987730    0.000000
  H     -1.893830    1.527550    0.682490
  H     -2.578200    2.576280   -1.417000

----------------------------
CARTESIAN COORDINATES (A.U.)
----------------------------
  NO LB      ZA    FRAG     MASS         X           Y           Z
   0 O     8.0000    0    15.999   -6.272908    3.756265    0.000000
   1 H     1.0000    0     1.008   -3.578820    2.886651    1.289719
   2 H     1.0000    0     1.008   -4.872092    4.868464   -2.677742

--------------------------------
INTERNAL COORDINATES (ANGSTROEM)
--------------------------------
 O      0   0   0     0.000000000000     0.00000000     0.00000000
 H      1   0   0     1.646218744578     0.00000000     0.00000000
 H      1   2   0     1.704046989053    93.70190767     0.00000000

---------------------------
INTERNAL COORDINATES (A.U.)
---------------------------
 O      0   0   0     0.000000000000     0.00000000     0.00000000
 H      1   0   0     3.110902583780     0.00000000     0.00000000
 H      1   2   0     3.220182128643    93.70190767     0.00000000

---------------------
BASIS SET INFORMATION
---------------------
There are 2 groups of distinct atoms

 Group   1 Type O   : 7s4p1d contracted to 3s2p1d pattern {511/31/1}
 Group   2 Type H   : 4s1p contracted to 2s1p pattern {31/1}

Atom   0O    basis set group =>   1
Atom   1H    basis set group =>   2
Atom   2H    basis set group =>   2
------------------------------------------------------------------------------
                           ORCA GTO INTEGRAL CALCULATION
------------------------------------------------------------------------------

                         BASIS SET STATISTICS AND STARTUP INFO

 # of primitive gaussian shells          ...   22
 # of primitive gaussian functions       ...   38
 # of contracted shells                  ...   12
 # of contracted basis functions         ...   24
 Highest angular momentum                ...    2
 Maximum contraction depth               ...    5
 Integral package used                   ... LIBINT
 Integral threshhold            Thresh   ...  2.500e-11
 Primitive cut-off              TCut     ...  2.500e-12


------------------------------ INTEGRAL EVALUATION ----------------------------


 * One electron integrals 
 Pre-screening matrix                    ... done
 Shell pair data                         ... done (   0.000 sec)

-------------------------------------------------------------------------------
                                 ORCA SCF
-------------------------------------------------------------------------------

------------
SCF SETTINGS
------------
Hamiltonian:
 Density Functional     Method          .... DFT(GTOs)
 Exchange Functional    Exchange        .... B88
   X-Alpha parameter    XAlpha          ....  0.666667
   Becke's b parameter  XBeta           ....  0.004200
 Correlation Functional Correlation     .... LYP
 LDA part of GGA corr.  LDAOpt          .... VWN-5
 Gradients option       PostSCFGGA      .... off
 Hybrid DFT is turned on
   Fraction HF Exchange ScalHFX         ....  0.200000
   Scaling of DF-GGA-X  ScalDFX         ....  0.720000
   Scaling of DF-GGA-C  ScalDFC         ....  0.810000
   Scaling of DF-LDA-C  ScalLDAC        ....  1.000000
   Perturbative correction              ....  0.000000
   Density functional embedding theory  .... OFF
   NL short-range parameter             ....  4.800000


General Settings:
 Integral files         IntName         .... optimisationDFTB3D3
 Hartree-Fock type      HFTyp           .... RHF
 Total Charge           Charge          ....    0
 Multiplicity           Mult            ....    1
 Number of Electrons    NEL             ....   10
 Basis Dimension        Dim             ....   24
 Nuclear Repulsion      ENuc            ....      5.2724005323 Eh

Convergence Acceleration:
 DIIS                   CNVDIIS         .... on
   Start iteration      DIISMaxIt       ....    12
   Startup error        DIISStart       ....  0.200000
   # of expansion vecs  DIISMaxEq       ....     5
   Bias factor          DIISBfac        ....   1.050
   Max. coefficient     DIISMaxC        ....  10.000
 Newton-Raphson         CNVNR           .... off
 SOSCF                  CNVSOSCF        .... on
   Start iteration      SOSCFMaxIt      ....   150
   Startup grad/error   SOSCFStart      ....  0.003300
 Level Shifting         CNVShift        .... on
   Level shift para.    LevelShift      ....    0.2500
   Turn off err/grad.   ShiftErr        ....    0.0010
 Zerner damping         CNVZerner       .... off
 Static damping         CNVDamp         .... on
   Fraction old density DampFac         ....    0.7000
   Max. Damping (<1)    DampMax         ....    0.9800
   Min. Damping (>=0)   DampMin         ....    0.0000
   Turn off err/grad.   DampErr         ....    0.1000
 Fernandez-Rico         CNVRico         .... off

SCF Procedure:
 Maximum # iterations   MaxIter         ....   125
 SCF integral mode      SCFMode         .... Direct
   Integral package                     .... LIBINT
 Reset frequency        DirectResetFreq ....    20
 Integral Threshold     Thresh          ....  2.500e-11 Eh
 Primitive CutOff       TCut            ....  2.500e-12 Eh

Convergence Tolerance:
 Convergence Check Mode ConvCheckMode   .... Total+1el-Energy
 Convergence forced     ConvForced      .... 0
 Energy Change          TolE            ....  1.000e-08 Eh
 1-El. energy change                    ....  1.000e-05 Eh
 Orbital Gradient       TolG            ....  1.000e-05
 Orbital Rotation angle TolX            ....  1.000e-05
 DIIS Error             TolErr          ....  5.000e-07


Diagonalization of the overlap matrix:
Smallest eigenvalue                        ... 1.136e-01
Time for diagonalization                   ...    0.001 sec
Threshold for overlap eigenvalues          ... 1.000e-08
Number of eigenvalues below threshold      ... 0
Time for construction of square roots      ...    0.002 sec
Total time needed                          ...    0.002 sec

-------------------
DFT GRID GENERATION
-------------------

General Integration Accuracy     IntAcc      ...  4.340
Radial Grid Type                 RadialGrid  ... Gauss-Chebyshev
Angular Grid (max. acc.)         AngularGrid ... Lebedev-110
Angular grid pruning method      GridPruning ... 3 (G Style)
Weight generation scheme         WeightScheme... Becke
Basis function cutoff            BFCut       ...    1.0000e-11
Integration weight cutoff        WCut        ...    1.0000e-14
Grids for H and He will be reduced by one unit

# of grid points (after initial pruning)     ...   3304 (   0.0 sec)
# of grid points (after weights+screening)   ...   3301 (   0.0 sec)
nearest neighbour list constructed           ...    0.0 sec
Grid point re-assignment to atoms done       ...    0.0 sec
Grid point division into batches done        ...    0.0 sec
Reduced shell lists constructed in    0.0 sec

Total number of grid points                  ...     3301
Total number of batches                      ...       52
Average number of points per batch           ...       63
Average number of grid points per atom       ...     1100
Average number of shells per batch           ...    10.94 (91.19%)
Average number of basis functions per batch  ...    21.96 (91.51%)
Average number of large shells per batch     ...    10.19 (93.10%)
Average number of large basis fcns per batch ...    20.38 (92.78%)
Maximum spatial batch extension              ...  22.22, 22.51, 18.30 au
Average spatial batch extension              ...   5.93,  6.48,  5.51 au

Time for grid setup =    0.009 sec

------------------------------
INITIAL GUESS: MODEL POTENTIAL
------------------------------
Loading Hartree-Fock densities                     ... done
Calculating cut-offs                               ... done
Setting up the integral package                    ... done
Initializing the effective Hamiltonian             ... done
Starting the Coulomb interaction                   ... done (   0.0 sec)
Reading the grid                                   ... done
Mapping shells                                     ... done
Starting the XC term evaluation                    ... done (   0.0 sec)
  promolecular density results
     # of electrons  =      9.998184224
     EX              =     -8.612240195
     EC              =     -0.316734903
     EX+EC           =     -8.928975098
Transforming the Hamiltonian                       ... done (   0.0 sec)
Diagonalizing the Hamiltonian                      ... done (   0.0 sec)
Back transforming the eigenvectors                 ... done (   0.0 sec)
Now organizing SCF variables                       ... done
                      ------------------
                      INITIAL GUESS DONE (   0.1 sec)
                      ------------------
--------------
SCF ITERATIONS
--------------
ITER       Energy         Delta-E        Max-DP      RMS-DP      [F,P]     Damp
               ***  Starting incremental Fock matrix formation  ***
  0    -75.8473810884   0.000000000000 0.15673799  0.01647298  0.3792271 0.7000
  1    -75.9860488959  -0.138667807467 0.08913919  0.00861430  0.0810266 0.7000
                               ***Turning on DIIS***
  2    -75.9918632301  -0.005814334247 0.03699011  0.00318666  0.1047991 0.7000
  3    -76.0136285882  -0.021765358095 0.07382137  0.00856894  0.0696009 0.0000
  4    -76.0598100459  -0.046181457691 0.03045002  0.00264908  0.0797565 0.0000
  5    -76.0658035504  -0.005993504534 0.00962289  0.00095091  0.0384261 0.0000
  6    -76.0671811610  -0.001377610576 0.00509457  0.00051965  0.0181108 0.0000
  7    -76.0675191185  -0.000337957468 0.00225880  0.00023636  0.0076731 0.0000
                      *** Initiating the SOSCF procedure ***
                           *** Shutting down DIIS ***
                      *** Re-Reading the Fockian *** 
                      *** Removing any level shift *** 
ITER      Energy       Delta-E        Grad      Rot      Max-DP    RMS-DP
  8    -76.06758193  -0.0000628120  0.000531  0.000531  0.001038  0.000109
               *** Restarting incremental Fock matrix formation ***
  9    -76.06759394  -0.0000120126  0.000810  0.003714  0.003577  0.000348
 10    -76.06755823   0.0000357110  0.003170  0.002749  0.002822  0.000273
 11    -76.06759645  -0.0000382206  0.000023  0.000027  0.000055  0.000006
 12    -76.06759646  -0.0000000040  0.000008  0.000015  0.000018  0.000002
                 **** Energy Check signals convergence ****
              ***Rediagonalizing the Fockian in SOSCF/NRSCF***

               *****************************************************
               *                     SUCCESS                       *
               *           SCF CONVERGED AFTER  13 CYCLES          *
               *****************************************************

Setting up the final grid:

General Integration Accuracy     IntAcc      ...  4.670
Radial Grid Type                 RadialGrid  ... Gauss-Chebyshev
Angular Grid (max. acc.)         AngularGrid ... Lebedev-302
Angular grid pruning method      GridPruning ... 3 (G Style)
Weight generation scheme         WeightScheme... Becke
Basis function cutoff            BFCut       ...    1.0000e-11
Integration weight cutoff        WCut        ...    1.0000e-14
Grids for H and He will be reduced by one unit

# of grid points (after initial pruning)     ...  13000 (   0.0 sec)
# of grid points (after weights+screening)   ...  12959 (   0.0 sec)
nearest neighbour list constructed           ...    0.0 sec
Grid point re-assignment to atoms done       ...    0.0 sec
Grid point division into batches done        ...    0.0 sec
Reduced shell lists constructed in    0.0 sec

Total number of grid points                  ...    12959
Total number of batches                      ...      205
Average number of points per batch           ...       63
Average number of grid points per atom       ...     4320
Average number of shells per batch           ...    10.00 (83.29%)
Average number of basis functions per batch  ...    20.00 (83.31%)
Average number of large shells per batch     ...     9.14 (91.45%)
Average number of large basis fcns per batch ...    18.09 (90.48%)
Maximum spatial batch extension              ...  16.88, 16.92, 16.88 au
Average spatial batch extension              ...   3.43,  3.49,  3.26 au

Final grid set up in    0.0 sec
Final integration                            ... done (   0.0 sec)
Change in XC energy                          ...     0.000454899
Integrated number of electrons               ...     9.999974608
Previous integrated no of electrons          ...     9.999577587

----------------
TOTAL SCF ENERGY
----------------

Total Energy       :          -76.06714156 Eh           -2069.89215 eV

Components:
Nuclear Repulsion  :            5.27240053 Eh             143.46931 eV
Electronic Energy  :          -81.33954209 Eh           -2213.36147 eV
One Electron Energy:         -115.40467213 Eh           -3140.32078 eV
Two Electron Energy:           34.06513004 Eh             926.95931 eV

Virial components:
Potential Energy   :         -151.16790303 Eh           -4113.48777 eV
Kinetic Energy     :           75.10076147 Eh            2043.59561 eV
Virial Ratio       :            2.01286778


DFT components:
N(Alpha)           :        4.999987303773 electrons
N(Beta)            :        4.999987303773 electrons
N(Total)           :        9.999974607546 electrons
E(X)               :       -6.848056786272 Eh       
E(C)               :       -0.381701382811 Eh       
E(XC)              :       -7.229758169083 Eh       
DFET-embed. en.    :        0.000000000000 Eh       

---------------
SCF CONVERGENCE
---------------

  Last Energy change         ...   -5.7211e-10  Tolerance :   1.0000e-08
  Last MAX-Density change    ...    7.1074e-06  Tolerance :   1.0000e-07
  Last RMS-Density change    ...    6.7755e-07  Tolerance :   5.0000e-09
  Last Orbital Gradient      ...    1.9433e-06  Tolerance :   1.0000e-05
  Last Orbital Rotation      ...    5.7828e-06  Tolerance :   1.0000e-05

             **** THE GBW FILE WAS UPDATED (optimisationDFTB3D3.gbw) ****
             **** DENSITY FILE WAS UPDATED (optimisationDFTB3D3.scfp) ****
             **** ENERGY FILE WAS UPDATED (optimisationDFTB3D3.en.tmp) ****
             **** THE GBW FILE WAS UPDATED (optimisationDFTB3D3.gbw) ****
             **** DENSITY FILE WAS UPDATED (optimisationDFTB3D3.scfp) ****
----------------
ORBITAL ENERGIES
----------------

  NO   OCC          E(Eh)            E(eV) 
   0   2.0000     -19.194960      -522.3214 
   1   2.0000      -0.862101       -23.4589 
   2   2.0000      -0.356034        -9.6882 
   3   2.0000      -0.343859        -9.3569 
   4   2.0000      -0.284431        -7.7398 
   5   0.0000      -0.125718        -3.4210 
   6   0.0000      -0.097954        -2.6655 
   7   0.0000       0.421341        11.4653 
   8   0.0000       0.455268        12.3885 
   9   0.0000       0.870497        23.6874 
  10   0.0000       0.897392        24.4193 
  11   0.0000       0.964441        26.2438 
  12   0.0000       0.986580        26.8462 
  13   0.0000       1.375224        37.4217 
  14   0.0000       1.397860        38.0377 
  15   0.0000       1.407441        38.2984 
  16   0.0000       1.450498        39.4701 
  17   0.0000       1.576594        42.9013 
  18   0.0000       1.853867        50.4463 
  19   0.0000       2.628931        71.5368 
  20   0.0000       2.643063        71.9214 
  21   0.0000       2.646773        72.0224 
  22   0.0000       2.758436        75.0609 
  23   0.0000       2.848973        77.5245 

                    ********************************
                    * MULLIKEN POPULATION ANALYSIS *
                    ********************************

-----------------------
MULLIKEN ATOMIC CHARGES
-----------------------
   0 O :   -0.335809
   1 H :    0.173715
   2 H :    0.162093
Sum of atomic charges:    0.0000000

--------------------------------
MULLIKEN REDUCED ORBITAL CHARGES
--------------------------------
  0 O s       :     3.976622  s :     3.976622
      pz      :     1.326189  p :     4.357239
      px      :     1.184597
      py      :     1.846453
      dz2     :     0.000255  d :     0.001948
      dxz     :     0.000742
      dyz     :     0.000163
      dx2y2   :     0.000485
      dxy     :     0.000302
  1 H s       :     0.818851  s :     0.818851
      pz      :     0.001709  p :     0.007434
      px      :     0.004122
      py      :     0.001603
  2 H s       :     0.832083  s :     0.832083
      pz      :     0.003032  p :     0.005823
      px      :     0.001401
      py      :     0.001390


                     *******************************
                     * LOEWDIN POPULATION ANALYSIS *
                     *******************************

----------------------
LOEWDIN ATOMIC CHARGES
----------------------
   0 O :   -0.313523
   1 H :    0.160867
   2 H :    0.152656

-------------------------------
LOEWDIN REDUCED ORBITAL CHARGES
-------------------------------
  0 O s       :     3.931684  s :     3.931684
      pz      :     1.336733  p :     4.379544
      px      :     1.194974
      py      :     1.847837
      dz2     :     0.000321  d :     0.002295
      dxz     :     0.000891
      dyz     :     0.000207
      dx2y2   :     0.000528
      dxy     :     0.000348
  1 H s       :     0.823881  s :     0.823881
      pz      :     0.003101  p :     0.015252
      px      :     0.009330
      py      :     0.002821
  2 H s       :     0.835536  s :     0.835536
      pz      :     0.006465  p :     0.011808
      px      :     0.002876
      py      :     0.002467


                      *****************************
                      * MAYER POPULATION ANALYSIS *
                      *****************************

  NA   - Mulliken gross atomic population
  ZA   - Total nuclear charge
  QA   - Mulliken gross atomic charge
  VA   - Mayer's total valence
  BVA  - Mayer's bonded valence
  FA   - Mayer's free valence

  ATOM       NA         ZA         QA         VA         BVA        FA
  0 O      8.3358     8.0000    -0.3358     1.9388     1.9388     0.0000
  1 H      0.8263     1.0000     0.1737     0.9678     0.9678     0.0000
  2 H      0.8379     1.0000     0.1621     0.9719     0.9719     0.0000

  Mayer bond orders larger than 0.100000
B(  0-O ,  1-H ) :   0.9673 B(  0-O ,  2-H ) :   0.9715 

-------
TIMINGS
-------

Total SCF time: 0 days 0 hours 0 min 1 sec 

Total time                  ....       1.369 sec
Sum of individual times     ....       1.239 sec  ( 90.5%)

Fock matrix formation       ....       1.123 sec  ( 82.1%)
  XC integration            ....       0.075 sec  (  6.7% of F)
    Basis function eval.    ....       0.021 sec  ( 27.6% of XC)
    Density eval.           ....       0.016 sec  ( 21.7% of XC)
    XC-Functional eval.     ....       0.017 sec  ( 23.1% of XC)
    XC-Potential eval.      ....       0.010 sec  ( 12.9% of XC)
Diagonalization             ....       0.001 sec  (  0.1%)
Density matrix formation    ....       0.000 sec  (  0.0%)
Population analysis         ....       0.001 sec  (  0.1%)
Initial guess               ....       0.063 sec  (  4.6%)
Orbital Transformation      ....       0.000 sec  (  0.0%)
Orbital Orthonormalization  ....       0.000 sec  (  0.0%)
DIIS solution               ....       0.001 sec  (  0.1%)
SOSCF solution              ....       0.001 sec  (  0.1%)
Grid generation             ....       0.050 sec  (  3.6%)


-------------------------------------------------------------------------------
                          DFT DISPERSION CORRECTION                            
                                                                               
                              DFTD3 V3.1  Rev 1                                
                          USING Becke-Johnson damping                          
-------------------------------------------------------------------------------
The B3LYP functional is recognized
Active option DFTDOPT                   ...         4   

molecular C6(AA) [au] = 85.166778 


            DFT-D V3
 parameters
 s6 scaling factor         :     1.0000 
 a1 scaling factor         :     0.3981 
 s8 scaling factor         :     1.9889 
 a2 scaling factor         :     4.4211 
 ad hoc parameters k1-k3   :    16.0000     1.3333    -4.0000 

 Edisp/kcal,au: -0.671097605282  -0.001069461994 
 E6   /kcal   :  -0.362853747 
 E8   /kcal   :  -0.308243858 
 % E8         :  45.931300559 

-------------------------   ----------------
Dispersion correction           -0.001069462
-------------------------   ----------------


-------------------------   --------------------
FINAL SINGLE POINT ENERGY       -76.068211020061
-------------------------   --------------------

------------------------------------------------------------------------------
                         ORCA SCF GRADIENT CALCULATION
------------------------------------------------------------------------------

Gradient of the Kohn-Sham DFT energy:
Kohn-Sham wavefunction type      ... RKS
Hartree-Fock exchange scaling    ...    0.200
Number of operators              ...    1
Number of atoms                  ...    3
Basis set dimensions             ...   24
Integral neglect threshold       ... 2.5e-11
Integral primitive cutoff        ... 2.5e-12

Nuclear repulsion gradient       ... done
One Electron Gradient            ... done
Pre-screening matrix             ... done
Starting the two electron gradient:
Two electron gradient done
Exchange-correlation gradient    ... done
Dispersion correction            ... done

------------------
CARTESIAN GRADIENT
------------------

   1   O   :   -0.122448342   -0.004612321    0.036013744
   2   H   :    0.083486928   -0.027814033    0.041685343
   3   H   :    0.038961414    0.032426354   -0.077699087

Difference to translation invariance:
           :    0.0000000000   -0.0000000000    0.0000000000

Norm of the cartesian gradient     ...    0.1854718939
RMS gradient                       ...    0.0618239646
MAX gradient                       ...    0.1224483416

-------
TIMINGS
-------

Total SCF gradient time            ...        0.201 sec

One electron gradient       ....       0.001 sec  (  0.5%)
Prescreening matrices       ....       0.002 sec  (  0.8%)
Two electron gradient       ....       0.017 sec  (  8.7%)
XC gradient                 ....       0.053 sec  ( 26.6%)
------------------------------------------------------------------------------
                         ORCA GEOMETRY RELAXATION STEP
------------------------------------------------------------------------------

Reading the OPT-File                    .... done
Getting information on internals        .... done
Copying old internal coords+grads       .... done
Making the new internal coordinates     .... (new redundants).... done
Validating the new internal coordinates .... (new redundants).... done
Calculating the B-matrix                .... done
Calculating the G,G- and P matrices     .... done
Transforming gradient to internals      .... done
Projecting the internal gradient        .... done
Number of atoms                         ....   3
Number of internal coordinates          ....   3
Current Energy                          ....   -76.068211020 Eh
Current gradient norm                   ....     0.185471894 Eh/bohr
Maximum allowed component of the step   ....  0.300
Current trust radius                    ....  0.300
Evaluating the initial hessian          ....  (Almloef) done
Projecting the Hessian                  .... done
Forming the augmented Hessian           .... done
Diagonalizing the augmented Hessian     .... done
Last element of RFO vector              ....  0.754749197
Lowest eigenvalues of augmented Hessian:
 -0.116909986  0.037569494  0.153221948
Length of the computed step             ....  0.869180721
Warning: the length of the step is outside the trust region - taking restricted step instead
The input lambda is                     ....    -0.116910
   iter:   1  x=   -0.185011  g=    9.771851 f(x)=     0.665475
   iter:   2  x=   -0.268895  g=    3.268684 f(x)=     0.274189
   iter:   3  x=   -0.350479  g=    1.253244 f(x)=     0.102244
   iter:   4  x=   -0.398989  g=    0.617698 f(x)=     0.029964
   iter:   5  x=   -0.410064  g=    0.433940 f(x)=     0.004806
   iter:   6  x=   -0.410503  g=    0.402544 f(x)=     0.000177
   iter:   7  x=   -0.410504  g=    0.401363 f(x)=     0.000000
   iter:   8  x=   -0.410504  g=    0.401361 f(x)=     0.000000
   iter:   9  x=   -0.410504  g=    0.401361 f(x)=     0.000000
The output lambda is                    ....    -0.410504 (9 iterations)
The final length of the internal step   ....  0.300000000
Converting the step to cartesian space:
 Initial RMS(Int)=    0.1732050808
Transforming coordinates:
 Iter   0:  RMS(Cart)=    0.0857057405 RMS(Int)=    0.1731869801
 Iter   1:  RMS(Cart)=    0.0003812899 RMS(Int)=    0.0004024764
 Iter   2:  RMS(Cart)=    0.0000269427 RMS(Int)=    0.0000290447
 Iter   3:  RMS(Cart)=    0.0000019296 RMS(Int)=    0.0000020767
 Iter   4:  RMS(Cart)=    0.0000001381 RMS(Int)=    0.0000001486
 Iter   5:  RMS(Cart)=    0.0000000099 RMS(Int)=    0.0000000106
done
Storing new coordinates                 .... done

                                .--------------------.
          ----------------------|Geometry convergence|-------------------------
          Item                value                   Tolerance       Converged
          ---------------------------------------------------------------------
          RMS gradient        0.0776938117            0.0001000000      NO
          MAX gradient        0.0973736928            0.0003000000      NO
          RMS step            0.1732050808            0.0020000000      NO
          MAX step            0.2152850984            0.0040000000      NO
          ........................................................
          Max(Bonds)      0.1139      Max(Angles)    0.51
          Max(Dihed)        0.00      Max(Improp)    0.00
          ---------------------------------------------------------------------

The optimization has not yet converged - more geometry cycles are needed


    ---------------------------------------------------------------------------
                         Redundant Internal Coordinates
                            (Angstroem and degrees)

        Definition                    Value    dE/dq     Step     New-Value
    ----------------------------------------------------------------------------
     1. B(H   1,O   0)                1.6462  0.097374 -0.1139    1.5323   
     2. B(H   2,O   0)                1.7040  0.092744 -0.1105    1.5936   
     3. A(H   1,O   0,H   2)           93.70  0.005096   -0.51     93.19   
    ----------------------------------------------------------------------------

         *************************************************************
         *                GEOMETRY OPTIMIZATION CYCLE   2            *
         *************************************************************
---------------------------------
CARTESIAN COORDINATES (ANGSTROEM)
---------------------------------
  O     -3.273525    1.989299   -0.013108
  H     -1.942212    1.563869    0.615018
  H     -2.575773    2.538392   -1.336420

----------------------------
CARTESIAN COORDINATES (A.U.)
----------------------------
  NO LB      ZA    FRAG     MASS         X           Y           Z
   0 O     8.0000    0    15.999   -6.186066    3.759230   -0.024770
   1 H     1.0000    0     1.008   -3.670249    2.955284    1.162216
   2 H     1.0000    0     1.008   -4.867506    4.796866   -2.525469

--------------------------------
INTERNAL COORDINATES (ANGSTROEM)
--------------------------------
 O      0   0   0     0.000000000000     0.00000000     0.00000000
 H      1   0   0     1.532294777134     0.00000000     0.00000000
 H      1   2   0     1.593586391758    93.19000594     0.00000000

---------------------------
INTERNAL COORDINATES (A.U.)
---------------------------
 O      0   0   0     0.000000000000     0.00000000     0.00000000
 H      1   0   0     2.895617485222     0.00000000     0.00000000
 H      1   2   0     3.011441851167    93.19000594     0.00000000


Diagonalization of the overlap matrix:
Smallest eigenvalue                        ... 9.985e-02
Time for diagonalization                   ...    0.000 sec
Threshold for overlap eigenvalues          ... 1.000e-08
Number of eigenvalues below threshold      ... 0
Time for construction of square roots      ...    0.000 sec
Total time needed                          ...    0.000 sec

-------------------
DFT GRID GENERATION
-------------------

General Integration Accuracy     IntAcc      ...  4.340
Radial Grid Type                 RadialGrid  ... Gauss-Chebyshev
Angular Grid (max. acc.)         AngularGrid ... Lebedev-110
Angular grid pruning method      GridPruning ... 3 (G Style)
Weight generation scheme         WeightScheme... Becke
Basis function cutoff            BFCut       ...    1.0000e-11
Integration weight cutoff        WCut        ...    1.0000e-14
Grids for H and He will be reduced by one unit

# of grid points (after initial pruning)     ...   3304 (   0.0 sec)
# of grid points (after weights+screening)   ...   3299 (   0.0 sec)
nearest neighbour list constructed           ...    0.0 sec
Grid point re-assignment to atoms done       ...    0.0 sec
Grid point division into batches done        ...    0.0 sec
Reduced shell lists constructed in    0.0 sec

Total number of grid points                  ...     3299
Total number of batches                      ...       54
Average number of points per batch           ...       61
Average number of grid points per atom       ...     1100
Average number of shells per batch           ...    10.96 (91.36%)
Average number of basis functions per batch  ...    22.02 (91.74%)
Average number of large shells per batch     ...    10.20 (93.03%)
Average number of large basis fcns per batch ...    20.42 (92.73%)
Maximum spatial batch extension              ...  21.80, 21.59, 18.30 au
Average spatial batch extension              ...   6.09,  5.91,  5.35 au

Time for grid setup =    0.006 sec

--------------
SCF ITERATIONS
--------------
ITER       Energy         Delta-E        Max-DP      RMS-DP      [F,P]     Damp
               ***  Starting incremental Fock matrix formation  ***
  0    -76.1083389987   0.000000000000 0.00719560  0.00067928  0.0195708 0.7000
  1    -76.1087293943  -0.000390395653 0.00483016  0.00055110  0.0093736 0.7000
                               ***Turning on DIIS***
  2    -76.1089474848  -0.000218090499 0.00923849  0.00134330  0.0073295 0.0000
                      *** Initiating the SOSCF procedure ***
                           *** Shutting down DIIS ***
                      *** Re-Reading the Fockian *** 
                      *** Removing any level shift *** 
ITER      Energy       Delta-E        Grad      Rot      Max-DP    RMS-DP
  3    -76.10950504  -0.0005575528  0.001793  0.001793  0.002986  0.000308
               *** Restarting incremental Fock matrix formation ***
  4    -76.10950275   0.0000022839  0.001993  0.007946  0.008917  0.000777
  5    -76.10934922   0.0001535317  0.006627  0.005499  0.005989  0.000591
  6    -76.10951943  -0.0001702112  0.000067  0.000250  0.000152  0.000022
  7    -76.10951950  -0.0000000701  0.000017  0.000060  0.000082  0.000008
                 **** Energy Check signals convergence ****
              ***Rediagonalizing the Fockian in SOSCF/NRSCF***

               *****************************************************
               *                     SUCCESS                       *
               *           SCF CONVERGED AFTER   8 CYCLES          *
               *****************************************************

Setting up the final grid:

General Integration Accuracy     IntAcc      ...  4.670
Radial Grid Type                 RadialGrid  ... Gauss-Chebyshev
Angular Grid (max. acc.)         AngularGrid ... Lebedev-302
Angular grid pruning method      GridPruning ... 3 (G Style)
Weight generation scheme         WeightScheme... Becke
Basis function cutoff            BFCut       ...    1.0000e-11
Integration weight cutoff        WCut        ...    1.0000e-14
Grids for H and He will be reduced by one unit

# of grid points (after initial pruning)     ...  13000 (   0.0 sec)
# of grid points (after weights+screening)   ...  12954 (   0.0 sec)
nearest neighbour list constructed           ...    0.0 sec
Grid point re-assignment to atoms done       ...    0.0 sec
Grid point division into batches done        ...    0.0 sec
Reduced shell lists constructed in    0.0 sec

Total number of grid points                  ...    12954
Total number of batches                      ...      204
Average number of points per batch           ...       63
Average number of grid points per atom       ...     4318
Average number of shells per batch           ...    10.00 (83.29%)
Average number of basis functions per batch  ...    20.01 (83.39%)
Average number of large shells per batch     ...     9.29 (92.92%)
Average number of large basis fcns per batch ...    18.49 (92.37%)
Maximum spatial batch extension              ...  16.88, 16.92, 16.88 au
Average spatial batch extension              ...   3.42,  3.52,  3.27 au

Final grid set up in    0.0 sec
Final integration                            ... done (   0.0 sec)
Change in XC energy                          ...     0.000191316
Integrated number of electrons               ...     9.999976630
Previous integrated no of electrons          ...     9.999807104
Total Energy       :          -76.10932819 Eh           -2071.04011 eV
  Last Energy change         ...   -5.2077e-09  Tolerance :   1.0000e-08
  Last MAX-Density change    ...    1.7857e-05  Tolerance :   1.0000e-07
             **** THE GBW FILE WAS UPDATED (optimisationDFTB3D3.gbw) ****
             **** DENSITY FILE WAS UPDATED (optimisationDFTB3D3.scfp) ****
             **** ENERGY FILE WAS UPDATED (optimisationDFTB3D3.en.tmp) ****
             **** THE GBW FILE WAS UPDATED (optimisationDFTB3D3.gbw) ****
             **** DENSITY FILE WAS UPDATED (optimisationDFTB3D3.scfp) ****
Total SCF time: 0 days 0 hours 0 min 0 sec 


-------------------------------------------------------------------------------
                          DFT DISPERSION CORRECTION                            
                                                                               
                              DFTD3 V3.1  Rev 1                                
                          USING Becke-Johnson damping                          
-------------------------------------------------------------------------------
-------------------------   ----------------
Dispersion correction           -0.001087849
-------------------------   ----------------


-------------------------   --------------------
FINAL SINGLE POINT ENERGY       -76.110416041921
-------------------------   --------------------

------------------------------------------------------------------------------
                         ORCA SCF GRADIENT CALCULATION
------------------------------------------------------------------------------

Gradient of the Kohn-Sham DFT energy:
Kohn-Sham wavefunction type      ... RKS
Hartree-Fock exchange scaling    ...    0.200
Number of operators              ...    1
Number of atoms                  ...    3
Basis set dimensions             ...   24
Integral neglect threshold       ... 2.5e-11
Integral primitive cutoff        ... 2.5e-12

Nuclear repulsion gradient       ... done
One Electron Gradient            ... done
Pre-screening matrix             ... done
Starting the two electron gradient:
Two electron gradient done
Exchange-correlation gradient    ... done
Dispersion correction            ... done

------------------
CARTESIAN GRADIENT
------------------

   1   O   :   -0.134517364   -0.005402042    0.040304765
   2   H   :    0.091251450   -0.029886593    0.044342801
   3   H   :    0.043265914    0.035288635   -0.084647566

Difference to translation invariance:
           :   -0.0000000000    0.0000000000   -0.0000000000

Norm of the cartesian gradient     ...    0.2030205270
RMS gradient                       ...    0.0676735090
MAX gradient                       ...    0.1345173640

-------
TIMINGS
-------

Total SCF gradient time            ...        0.181 sec

One electron gradient       ....       0.001 sec  (  0.3%)
Prescreening matrices       ....       0.001 sec  (  0.7%)
Two electron gradient       ....       0.008 sec  (  4.2%)
XC gradient                 ....       0.053 sec  ( 29.4%)
------------------------------------------------------------------------------
                         ORCA GEOMETRY RELAXATION STEP
------------------------------------------------------------------------------

Reading the OPT-File                    .... done
Getting information on internals        .... done
Copying old internal coords+grads       .... done
Making the new internal coordinates     .... (new redundants).... done
Validating the new internal coordinates .... (new redundants).... done
Calculating the B-matrix                .... done
Calculating the G,G- and P matrices     .... done
Transforming gradient to internals      .... done
Projecting the internal gradient        .... done
Number of atoms                         ....   3
Number of internal coordinates          ....   3
Current Energy                          ....   -76.110416042 Eh
Current gradient norm                   ....     0.203020527 Eh/bohr
Maximum allowed component of the step   ....  0.300
Current trust radius                    ....  0.300
Updating the Hessian (BFGS)             .... done
Forming the augmented Hessian           .... done
Diagonalizing the augmented Hessian     .... done
Last element of RFO vector              ....  0.657390499
Lowest eigenvalues of augmented Hessian:
 -0.167972420  0.037185923  0.127605021
Length of the computed step             ....  1.146274683
Warning: the length of the step is outside the trust region - taking restricted step instead
The input lambda is                     ....    -0.167972
   iter:   1  x=   -0.227506  g=   20.559061 f(x)=     1.223946
   iter:   2  x=   -0.307402  g=    6.528405 f(x)=     0.521599
   iter:   3  x=   -0.401028  g=    2.249312 f(x)=     0.210593
   iter:   4  x=   -0.482972  g=    0.913592 f(x)=     0.074864
   iter:   5  x=   -0.522402  g=    0.494494 f(x)=     0.019498
   iter:   6  x=   -0.528477  g=    0.382856 f(x)=     0.002326
   iter:   7  x=   -0.528594  g=    0.368745 f(x)=     0.000043
   iter:   8  x=   -0.528594  g=    0.368479 f(x)=     0.000000
   iter:   9  x=   -0.528594  g=    0.368479 f(x)=     0.000000
The output lambda is                    ....    -0.528594 (9 iterations)
The final length of the internal step   ....  0.300000000
Converting the step to cartesian space:
 Initial RMS(Int)=    0.1732050808
Transforming coordinates:
 Iter   0:  RMS(Cart)=    0.0843560682 RMS(Int)=    0.1731972606
 Iter   1:  RMS(Cart)=    0.0002445814 RMS(Int)=    0.0002753806
 Iter   2:  RMS(Cart)=    0.0000187998 RMS(Int)=    0.0000213520
 Iter   3:  RMS(Cart)=    0.0000014553 RMS(Int)=    0.0000016514
 Iter   4:  RMS(Cart)=    0.0000001126 RMS(Int)=    0.0000001278
 Iter   5:  RMS(Cart)=    0.0000000087 RMS(Int)=    0.0000000099
done
Storing new coordinates                 .... done

                                .--------------------.
          ----------------------|Geometry convergence|-------------------------
          Item                value                   Tolerance       Converged
          ---------------------------------------------------------------------
          Energy change      -0.0422050219            0.0000050000      NO
          RMS gradient        0.0846158052            0.0001000000      NO
          MAX gradient        0.1057494238            0.0003000000      NO
          RMS step            0.1732050808            0.0020000000      NO
          MAX step            0.2158650683            0.0040000000      NO
          ........................................................
          Max(Bonds)      0.1142      Max(Angles)    0.32
          Max(Dihed)        0.00      Max(Improp)    0.00
          ---------------------------------------------------------------------

The optimization has not yet converged - more geometry cycles are needed


    ---------------------------------------------------------------------------
                         Redundant Internal Coordinates
                            (Angstroem and degrees)

        Definition                    Value    dE/dq     Step     New-Value
    ----------------------------------------------------------------------------
     1. B(H   1,O   0)                1.5323  0.105749 -0.1142    1.4181   
     2. B(H   2,O   0)                1.5936  0.101402 -0.1102    1.4834   
     3. A(H   1,O   0,H   2)           93.19  0.003760   -0.32     92.87   
    ----------------------------------------------------------------------------

         *************************************************************
         *                GEOMETRY OPTIMIZATION CYCLE   3            *
         *************************************************************
---------------------------------
CARTESIAN COORDINATES (ANGSTROEM)
---------------------------------
  O     -3.225910    1.990872   -0.026578
  H     -1.990872    1.599182    0.549758
  H     -2.574728    2.501505   -1.257690

----------------------------
CARTESIAN COORDINATES (A.U.)
----------------------------
  NO LB      ZA    FRAG     MASS         X           Y           Z
   0 O     8.0000    0    15.999   -6.096087    3.762204   -0.050225
   1 H     1.0000    0     1.008   -3.762202    3.022016    1.038892
   2 H     1.0000    0     1.008   -4.865531    4.727160   -2.376690

--------------------------------
INTERNAL COORDINATES (ANGSTROEM)
--------------------------------
 O      0   0   0     0.000000000000     0.00000000     0.00000000
 H      1   0   0     1.418063902881     0.00000000     0.00000000
 H      1   2   0     1.483381502703    92.86961185     0.00000000

---------------------------
INTERNAL COORDINATES (A.U.)
---------------------------
 O      0   0   0     0.000000000000     0.00000000     0.00000000
 H      1   0   0     2.679752416844     0.00000000     0.00000000
 H      1   2   0     2.803184792233    92.86961185     0.00000000


Diagonalization of the overlap matrix:
Smallest eigenvalue                        ... 8.529e-02
Time for diagonalization                   ...    0.000 sec
Threshold for overlap eigenvalues          ... 1.000e-08
Number of eigenvalues below threshold      ... 0
Time for construction of square roots      ...    0.000 sec
Total time needed                          ...    0.000 sec

-------------------
DFT GRID GENERATION
-------------------

General Integration Accuracy     IntAcc      ...  4.340
Radial Grid Type                 RadialGrid  ... Gauss-Chebyshev
Angular Grid (max. acc.)         AngularGrid ... Lebedev-110
Angular grid pruning method      GridPruning ... 3 (G Style)
Weight generation scheme         WeightScheme... Becke
Basis function cutoff            BFCut       ...    1.0000e-11
Integration weight cutoff        WCut        ...    1.0000e-14
Grids for H and He will be reduced by one unit

# of grid points (after initial pruning)     ...   3304 (   0.0 sec)
# of grid points (after weights+screening)   ...   3298 (   0.0 sec)
nearest neighbour list constructed           ...    0.0 sec
Grid point re-assignment to atoms done       ...    0.0 sec
Grid point division into batches done        ...    0.0 sec
Reduced shell lists constructed in    0.0 sec

Total number of grid points                  ...     3298
Total number of batches                      ...       54
Average number of points per batch           ...       61
Average number of grid points per atom       ...     1099
Average number of shells per batch           ...    11.02 (91.82%)
Average number of basis functions per batch  ...    22.07 (91.97%)
Average number of large shells per batch     ...    10.35 (93.89%)
Average number of large basis fcns per batch ...    20.78 (94.15%)
Maximum spatial batch extension              ...  21.62, 21.59, 18.30 au
Average spatial batch extension              ...   5.95,  5.85,  5.26 au

Time for grid setup =    0.006 sec

--------------
SCF ITERATIONS
--------------
ITER       Energy         Delta-E        Max-DP      RMS-DP      [F,P]     Damp
               ***  Starting incremental Fock matrix formation  ***
  0    -76.1531277579   0.000000000000 0.00775064  0.00078352  0.0217332 0.7000
  1    -76.1536653452  -0.000537587356 0.00554424  0.00065914  0.0117483 0.7000
                               ***Turning on DIIS***
  2    -76.1539990635  -0.000333718250 0.01195795  0.00163365  0.0090130 0.0000
  3    -76.1548200725  -0.000821009048 0.00399302  0.00040582  0.0034252 0.0000
  4    -76.1548169692   0.000003103329 0.00225247  0.00019164  0.0046536 0.0000
                      *** Initiating the SOSCF procedure ***
                           *** Shutting down DIIS ***
                      *** Re-Reading the Fockian *** 
                      *** Removing any level shift *** 
ITER      Energy       Delta-E        Grad      Rot      Max-DP    RMS-DP
  5    -76.15483973  -0.0000227609  0.000439  0.000439  0.000787  0.000061
               *** Restarting incremental Fock matrix formation ***
  6    -76.15484209  -0.0000023618  0.000336  0.001201  0.001153  0.000096
  7    -76.15484101   0.0000010824  0.000651  0.000553  0.000618  0.000059
  8    -76.15484261  -0.0000015992  0.000018  0.000023  0.000037  0.000004
                 **** Energy Check signals convergence ****
              ***Rediagonalizing the Fockian in SOSCF/NRSCF***

               *****************************************************
               *                     SUCCESS                       *
               *           SCF CONVERGED AFTER   9 CYCLES          *
               *****************************************************

Setting up the final grid:

General Integration Accuracy     IntAcc      ...  4.670
Radial Grid Type                 RadialGrid  ... Gauss-Chebyshev
Angular Grid (max. acc.)         AngularGrid ... Lebedev-302
Angular grid pruning method      GridPruning ... 3 (G Style)
Weight generation scheme         WeightScheme... Becke
Basis function cutoff            BFCut       ...    1.0000e-11
Integration weight cutoff        WCut        ...    1.0000e-14
Grids for H and He will be reduced by one unit

# of grid points (after initial pruning)     ...  13000 (   0.0 sec)
# of grid points (after weights+screening)   ...  12950 (   0.0 sec)
nearest neighbour list constructed           ...    0.0 sec
Grid point re-assignment to atoms done       ...    0.0 sec
Grid point division into batches done        ...    0.0 sec
Reduced shell lists constructed in    0.0 sec

Total number of grid points                  ...    12950
Total number of batches                      ...      205
Average number of points per batch           ...       63
Average number of grid points per atom       ...     4317
Average number of shells per batch           ...    10.05 (83.74%)
Average number of basis functions per batch  ...    20.12 (83.82%)
Average number of large shells per batch     ...     9.42 (93.72%)
Average number of large basis fcns per batch ...    18.78 (93.34%)
Maximum spatial batch extension              ...  16.88, 17.01, 16.88 au
Average spatial batch extension              ...   3.40,  3.55,  3.25 au

Final grid set up in    0.0 sec
Final integration                            ... done (   0.0 sec)
Change in XC energy                          ...    -0.000013910
Integrated number of electrons               ...     9.999997662
Previous integrated no of electrons          ...    10.000442021
Total Energy       :          -76.15485652 Eh           -2072.27900 eV
  Last Energy change         ...   -2.0982e-09  Tolerance :   1.0000e-08
  Last MAX-Density change    ...    5.3162e-06  Tolerance :   1.0000e-07
             **** THE GBW FILE WAS UPDATED (optimisationDFTB3D3.gbw) ****
             **** DENSITY FILE WAS UPDATED (optimisationDFTB3D3.scfp) ****
             **** ENERGY FILE WAS UPDATED (optimisationDFTB3D3.en.tmp) ****
             **** THE GBW FILE WAS UPDATED (optimisationDFTB3D3.gbw) ****
             **** DENSITY FILE WAS UPDATED (optimisationDFTB3D3.scfp) ****
Total SCF time: 0 days 0 hours 0 min 0 sec 


-------------------------------------------------------------------------------
                          DFT DISPERSION CORRECTION                            
                                                                               
                              DFTD3 V3.1  Rev 1                                
                          USING Becke-Johnson damping                          
-------------------------------------------------------------------------------
-------------------------   ----------------
Dispersion correction           -0.001081331
-------------------------   ----------------


-------------------------   --------------------
FINAL SINGLE POINT ENERGY       -76.155937851923
-------------------------   --------------------

------------------------------------------------------------------------------
                         ORCA SCF GRADIENT CALCULATION
------------------------------------------------------------------------------

Gradient of the Kohn-Sham DFT energy:
Kohn-Sham wavefunction type      ... RKS
Hartree-Fock exchange scaling    ...    0.200
Number of operators              ...    1
Number of atoms                  ...    3
Basis set dimensions             ...   24
Integral neglect threshold       ... 2.5e-11
Integral primitive cutoff        ... 2.5e-12

Nuclear repulsion gradient       ... done
One Electron Gradient            ... done
Pre-screening matrix             ... done
Starting the two electron gradient:
Two electron gradient done
Exchange-correlation gradient    ... done
Dispersion correction            ... done

------------------
CARTESIAN GRADIENT
------------------

   1   O   :   -0.144373897   -0.006505168    0.044688957
   2   H   :    0.097166044   -0.031187920    0.045979564
   3   H   :    0.047207853    0.037693088   -0.090668521

Difference to translation invariance:
           :    0.0000000000   -0.0000000000    0.0000000000

Norm of the cartesian gradient     ...    0.2174429116
RMS gradient                       ...    0.0724809705
MAX gradient                       ...    0.1443738969

-------
TIMINGS
-------

Total SCF gradient time            ...        0.180 sec

One electron gradient       ....       0.001 sec  (  0.3%)
Prescreening matrices       ....       0.001 sec  (  0.7%)
Two electron gradient       ....       0.008 sec  (  4.2%)
XC gradient                 ....       0.053 sec  ( 29.5%)
------------------------------------------------------------------------------
                         ORCA GEOMETRY RELAXATION STEP
------------------------------------------------------------------------------

Reading the OPT-File                    .... done
Getting information on internals        .... done
Copying old internal coords+grads       .... done
Making the new internal coordinates     .... (new redundants).... done
Validating the new internal coordinates .... (new redundants).... done
Calculating the B-matrix                .... done
Calculating the G,G- and P matrices     .... done
Transforming gradient to internals      .... done
Projecting the internal gradient        .... done
Number of atoms                         ....   3
Number of internal coordinates          ....   3
Current Energy                          ....   -76.155937852 Eh
Current gradient norm                   ....     0.217442912 Eh/bohr
Maximum allowed component of the step   ....  0.300
Current trust radius                    ....  0.300
Updating the Hessian (BFGS)             .... done
Forming the augmented Hessian           .... done
Diagonalizing the augmented Hessian     .... done
Last element of RFO vector              ....  0.669487014
Lowest eigenvalues of augmented Hessian:
 -0.173265010  0.036785007  0.140123675
Length of the computed step             ....  1.109541699
Warning: the length of the step is outside the trust region - taking restricted step instead
The input lambda is                     ....    -0.173265
   iter:   1  x=   -0.238470  g=   17.499936 f(x)=     1.141083
   iter:   2  x=   -0.325317  g=    5.582961 f(x)=     0.484861
   iter:   3  x=   -0.425396  g=    1.942631 f(x)=     0.194417
   iter:   4  x=   -0.509935  g=    0.804122 f(x)=     0.067980
   iter:   5  x=   -0.547848  g=    0.448140 f(x)=     0.016990
   iter:   6  x=   -0.552980  g=    0.356336 f(x)=     0.001829
   iter:   7  x=   -0.553058  g=    0.345899 f(x)=     0.000027
   iter:   8  x=   -0.553058  g=    0.345743 f(x)=     0.000000
   iter:   9  x=   -0.553058  g=    0.345743 f(x)=     0.000000
The output lambda is                    ....    -0.553058 (9 iterations)
The final length of the internal step   ....  0.300000000
Converting the step to cartesian space:
 Initial RMS(Int)=    0.1732050808
Transforming coordinates:
 Iter   0:  RMS(Cart)=    0.0829361089 RMS(Int)=    0.1732033743
 Iter   1:  RMS(Cart)=    0.0000496265 RMS(Int)=    0.0000602417
 Iter   2:  RMS(Cart)=    0.0000041918 RMS(Int)=    0.0000050586
 Iter   3:  RMS(Cart)=    0.0000003522 RMS(Int)=    0.0000004250
 Iter   4:  RMS(Cart)=    0.0000000296 RMS(Int)=    0.0000000357
done
Storing new coordinates                 .... done

                                .--------------------.
          ----------------------|Geometry convergence|-------------------------
          Item                value                   Tolerance       Converged
          ---------------------------------------------------------------------
          Energy change      -0.0455218100            0.0000050000      NO
          RMS gradient        0.0901855156            0.0001000000      NO
          MAX gradient        0.1119060077            0.0003000000      NO
          RMS step            0.1732050808            0.0020000000      NO
          MAX step            0.2136518999            0.0040000000      NO
          ........................................................
          Max(Bonds)      0.1131      Max(Angles)    0.06
          Max(Dihed)        0.00      Max(Improp)    0.00
          ---------------------------------------------------------------------

The optimization has not yet converged - more geometry cycles are needed


    ---------------------------------------------------------------------------
                         Redundant Internal Coordinates
                            (Angstroem and degrees)

        Definition                    Value    dE/dq     Step     New-Value
    ----------------------------------------------------------------------------
     1. B(H   1,O   0)                1.4181  0.111906 -0.1131    1.3050   
     2. B(H   2,O   0)                1.4834  0.108968 -0.1114    1.3719   
     3. A(H   1,O   0,H   2)           92.87  0.001823   -0.06     92.81   
    ----------------------------------------------------------------------------

         *************************************************************
         *                GEOMETRY OPTIMIZATION CYCLE   4            *
         *************************************************************
---------------------------------
CARTESIAN COORDINATES (ANGSTROEM)
---------------------------------
  O     -3.176866    1.992912   -0.041349
  H     -2.039177    1.633217    0.487159
  H     -2.575467    2.465431   -1.180321

----------------------------
CARTESIAN COORDINATES (A.U.)
----------------------------
  NO LB      ZA    FRAG     MASS         X           Y           Z
   0 O     8.0000    0    15.999   -6.003406    3.766057   -0.078138
   1 H     1.0000    0     1.008   -3.853487    3.086333    0.920598
   2 H     1.0000    0     1.008   -4.866928    4.658990   -2.230483

--------------------------------
INTERNAL COORDINATES (ANGSTROEM)
--------------------------------
 O      0   0   0     0.000000000000     0.00000000     0.00000000
 H      1   0   0     1.305004187017     0.00000000     0.00000000
 H      1   2   0     1.371937591738    92.80817680     0.00000000

---------------------------
INTERNAL COORDINATES (A.U.)
---------------------------
 O      0   0   0     0.000000000000     0.00000000     0.00000000
 H      1   0   0     2.466100517082     0.00000000     0.00000000
 H      1   2   0     2.592586321217    92.80817680     0.00000000


Diagonalization of the overlap matrix:
Smallest eigenvalue                        ... 7.110e-02
Time for diagonalization                   ...    0.000 sec
Threshold for overlap eigenvalues          ... 1.000e-08
Number of eigenvalues below threshold      ... 0
Time for construction of square roots      ...    0.000 sec
Total time needed                          ...    0.000 sec

-------------------
DFT GRID GENERATION
-------------------

General Integration Accuracy     IntAcc      ...  4.340
Radial Grid Type                 RadialGrid  ... Gauss-Chebyshev
Angular Grid (max. acc.)         AngularGrid ... Lebedev-110
Angular grid pruning method      GridPruning ... 3 (G Style)
Weight generation scheme         WeightScheme... Becke
Basis function cutoff            BFCut       ...    1.0000e-11
Integration weight cutoff        WCut        ...    1.0000e-14
Grids for H and He will be reduced by one unit

# of grid points (after initial pruning)     ...   3304 (   0.0 sec)
# of grid points (after weights+screening)   ...   3298 (   0.0 sec)
nearest neighbour list constructed           ...    0.0 sec
Grid point re-assignment to atoms done       ...    0.0 sec
Grid point division into batches done        ...    0.0 sec
Reduced shell lists constructed in    0.0 sec

Total number of grid points                  ...     3298
Total number of batches                      ...       53
Average number of points per batch           ...       62
Average number of grid points per atom       ...     1099
Average number of shells per batch           ...    11.02 (91.82%)
Average number of basis functions per batch  ...    22.06 (91.90%)
Average number of large shells per batch     ...    10.48 (95.13%)
Average number of large basis fcns per batch ...    21.07 (95.55%)
Maximum spatial batch extension              ...  21.59, 21.59, 18.30 au
Average spatial batch extension              ...   5.95,  5.79,  5.23 au

Time for grid setup =    0.006 sec

--------------
SCF ITERATIONS
--------------
ITER       Energy         Delta-E        Max-DP      RMS-DP      [F,P]     Damp
               ***  Starting incremental Fock matrix formation  ***
  0    -76.2001698037   0.000000000000 0.00824193  0.00093439  0.0239033 0.7000
  1    -76.2009067066  -0.000736902854 0.00618552  0.00079776  0.0147687 0.7000
                               ***Turning on DIIS***
  2    -76.2013958644  -0.000489157828 0.01509508  0.00199014  0.0108138 0.0000
  3    -76.2025762247  -0.001180360362 0.00449191  0.00047134  0.0042183 0.0000
  4    -76.2025790100  -0.000002785214 0.00273344  0.00023463  0.0049365 0.0000
                      *** Initiating the SOSCF procedure ***
                           *** Shutting down DIIS ***
                      *** Re-Reading the Fockian *** 
                      *** Removing any level shift *** 
ITER      Energy       Delta-E        Grad      Rot      Max-DP    RMS-DP
  5    -76.20260585  -0.0000268435  0.000410  0.000410  0.001066  0.000099
               *** Restarting incremental Fock matrix formation ***
  6    -76.20260759  -0.0000017333  0.000097  0.000242  0.000250  0.000022
  7    -76.20260756   0.0000000255  0.000129  0.000149  0.000181  0.000015
  8    -76.20260763  -0.0000000706  0.000017  0.000033  0.000049  0.000005
                 **** Energy Check signals convergence ****
              ***Rediagonalizing the Fockian in SOSCF/NRSCF***

               *****************************************************
               *                     SUCCESS                       *
               *           SCF CONVERGED AFTER   9 CYCLES          *
               *****************************************************

Setting up the final grid:

General Integration Accuracy     IntAcc      ...  4.670
Radial Grid Type                 RadialGrid  ... Gauss-Chebyshev
Angular Grid (max. acc.)         AngularGrid ... Lebedev-302
Angular grid pruning method      GridPruning ... 3 (G Style)
Weight generation scheme         WeightScheme... Becke
Basis function cutoff            BFCut       ...    1.0000e-11
Integration weight cutoff        WCut        ...    1.0000e-14
Grids for H and He will be reduced by one unit

# of grid points (after initial pruning)     ...  13000 (   0.0 sec)
# of grid points (after weights+screening)   ...  12945 (   0.0 sec)
nearest neighbour list constructed           ...    0.0 sec
Grid point re-assignment to atoms done       ...    0.0 sec
Grid point division into batches done        ...    0.0 sec
Reduced shell lists constructed in    0.0 sec

Total number of grid points                  ...    12945
Total number of batches                      ...      204
Average number of points per batch           ...       63
Average number of grid points per atom       ...     4315
Average number of shells per batch           ...    10.09 (84.11%)
Average number of basis functions per batch  ...    20.12 (83.84%)
Average number of large shells per batch     ...     9.52 (94.30%)
Average number of large basis fcns per batch ...    18.98 (94.33%)
Maximum spatial batch extension              ...  16.97, 17.07, 16.88 au
Average spatial batch extension              ...   3.32,  3.52,  3.26 au

Final grid set up in    0.0 sec
Final integration                            ... done (   0.0 sec)
Change in XC energy                          ...     0.000018005
Integrated number of electrons               ...    10.000011721
Previous integrated no of electrons          ...    10.001417316
Total Energy       :          -76.20258963 Eh           -2073.57788 eV
  Last Energy change         ...   -1.6480e-09  Tolerance :   1.0000e-08
  Last MAX-Density change    ...    1.8792e-05  Tolerance :   1.0000e-07
             **** THE GBW FILE WAS UPDATED (optimisationDFTB3D3.gbw) ****
             **** DENSITY FILE WAS UPDATED (optimisationDFTB3D3.scfp) ****
             **** ENERGY FILE WAS UPDATED (optimisationDFTB3D3.en.tmp) ****
             **** THE GBW FILE WAS UPDATED (optimisationDFTB3D3.gbw) ****
             **** DENSITY FILE WAS UPDATED (optimisationDFTB3D3.scfp) ****
Total SCF time: 0 days 0 hours 0 min 0 sec 


-------------------------------------------------------------------------------
                          DFT DISPERSION CORRECTION                            
                                                                               
                              DFTD3 V3.1  Rev 1                                
                          USING Becke-Johnson damping                          
-------------------------------------------------------------------------------
-------------------------   ----------------
Dispersion correction           -0.000953241
-------------------------   ----------------


-------------------------   --------------------
FINAL SINGLE POINT ENERGY       -76.203542870207
-------------------------   --------------------

------------------------------------------------------------------------------
                         ORCA SCF GRADIENT CALCULATION
------------------------------------------------------------------------------

Gradient of the Kohn-Sham DFT energy:
Kohn-Sham wavefunction type      ... RKS
Hartree-Fock exchange scaling    ...    0.200
Number of operators              ...    1
Number of atoms                  ...    3
Basis set dimensions             ...   24
Integral neglect threshold       ... 2.5e-11
Integral primitive cutoff        ... 2.5e-12

Nuclear repulsion gradient       ... done
One Electron Gradient            ... done
Pre-screening matrix             ... done
Starting the two electron gradient:
Two electron gradient done
Exchange-correlation gradient    ... done
Dispersion correction            ... done

------------------
CARTESIAN GRADIENT
------------------

   1   O   :   -0.148214347   -0.008086617    0.048799517
   2   H   :    0.098236800   -0.030854411    0.045223701
   3   H   :    0.049977547    0.038941028   -0.094023217

Difference to translation invariance:
           :    0.0000000000   -0.0000000000   -0.0000000000

Norm of the cartesian gradient     ...    0.2234198955
RMS gradient                       ...    0.0744732985
MAX gradient                       ...    0.1482143467

-------
TIMINGS
-------

Total SCF gradient time            ...        0.184 sec

One electron gradient       ....       0.001 sec  (  0.3%)
Prescreening matrices       ....       0.001 sec  (  0.7%)
Two electron gradient       ....       0.008 sec  (  4.2%)
XC gradient                 ....       0.053 sec  ( 29.0%)
------------------------------------------------------------------------------
                         ORCA GEOMETRY RELAXATION STEP
------------------------------------------------------------------------------

Reading the OPT-File                    .... done
Getting information on internals        .... done
Copying old internal coords+grads       .... done
Making the new internal coordinates     .... (new redundants).... done
Validating the new internal coordinates .... (new redundants).... done
Calculating the B-matrix                .... done
Calculating the G,G- and P matrices     .... done
Transforming gradient to internals      .... done
Projecting the internal gradient        .... done
Number of atoms                         ....   3
Number of internal coordinates          ....   3
Current Energy                          ....   -76.203542870 Eh
Current gradient norm                   ....     0.223419896 Eh/bohr
Maximum allowed component of the step   ....  0.300
Current trust radius                    ....  0.300
Updating the Hessian (BFGS)             .... done
Forming the augmented Hessian           .... done
Diagonalizing the augmented Hessian     .... done
Last element of RFO vector              ....  0.692565008
Lowest eigenvalues of augmented Hessian:
 -0.166103045  0.029376510  0.147877201
Length of the computed step             ....  1.041570768
Warning: the length of the step is outside the trust region - taking restricted step instead
The input lambda is                     ....    -0.166103
   iter:   1  x=   -0.236165  g=   14.199861 f(x)=     0.994870
   iter:   2  x=   -0.328046  g=    4.573674 f(x)=     0.420232
   iter:   3  x=   -0.430256  g=    1.624657 f(x)=     0.166057
   iter:   4  x=   -0.510366  g=    0.699412 f(x)=     0.056030
   iter:   5  x=   -0.541368  g=    0.413059 f(x)=     0.012806
   iter:   6  x=   -0.544574  g=    0.344565 f(x)=     0.001105
   iter:   7  x=   -0.544603  g=    0.338373 f(x)=     0.000010
   iter:   8  x=   -0.544603  g=    0.338316 f(x)=     0.000000
   iter:   9  x=   -0.544603  g=    0.338316 f(x)=     0.000000
The output lambda is                    ....    -0.544603 (9 iterations)
The final length of the internal step   ....  0.300000000
Converting the step to cartesian space:
 Initial RMS(Int)=    0.1732050808
Transforming coordinates:
 Iter   0:  RMS(Cart)=    0.0814380274 RMS(Int)=    0.1732025235
 Iter   1:  RMS(Cart)=    0.0002252791 RMS(Int)=    0.0002933691
 Iter   2:  RMS(Cart)=    0.0000207611 RMS(Int)=    0.0000268668
 Iter   3:  RMS(Cart)=    0.0000018977 RMS(Int)=    0.0000024572
 Iter   4:  RMS(Cart)=    0.0000001736 RMS(Int)=    0.0000002248
 Iter   5:  RMS(Cart)=    0.0000000159 RMS(Int)=    0.0000000206
done
Storing new coordinates                 .... done

                                .--------------------.
          ----------------------|Geometry convergence|-------------------------
          Item                value                   Tolerance       Converged
          ---------------------------------------------------------------------
          Energy change      -0.0476050183            0.0000050000      NO
          RMS gradient        0.0922000904            0.0001000000      NO
          MAX gradient        0.1133940577            0.0003000000      NO
          RMS step            0.1732050808            0.0020000000      NO
          MAX step            0.2162522344            0.0040000000      NO
          ........................................................
          Max(Bonds)      0.1144      Max(Angles)    0.29
          Max(Dihed)        0.00      Max(Improp)    0.00
          ---------------------------------------------------------------------

The optimization has not yet converged - more geometry cycles are needed


    ---------------------------------------------------------------------------
                         Redundant Internal Coordinates
                            (Angstroem and degrees)

        Definition                    Value    dE/dq     Step     New-Value
    ----------------------------------------------------------------------------
     1. B(H   1,O   0)                1.3050  0.112443 -0.1100    1.1950   
     2. B(H   2,O   0)                1.3719  0.113394 -0.1144    1.2575   
     3. A(H   1,O   0,H   2)           92.81 -0.000906    0.29     93.10   
    ----------------------------------------------------------------------------

         *************************************************************
         *                GEOMETRY OPTIMIZATION CYCLE   5            *
         *************************************************************
---------------------------------
CARTESIAN COORDINATES (ANGSTROEM)
---------------------------------
  O     -3.126717    1.995977   -0.058549
  H     -2.086329    1.665638    0.427770
  H     -2.578465    2.429945   -1.103730

----------------------------
CARTESIAN COORDINATES (A.U.)
----------------------------
  NO LB      ZA    FRAG     MASS         X           Y           Z
[...]

 # of primitive gaussian shells          ...   22
 # of primitive gaussian functions       ...   38
 # of contracted shells                  ...   12
 # of contracted basis functions         ...   24
 Highest angular momentum                ...    2
 Maximum contraction depth               ...    5
 Integral package used                   ... LIBINT
 Integral threshhold            Thresh   ...  2.500e-11
 Primitive cut-off              TCut     ...  2.500e-12


------------------------------ INTEGRAL EVALUATION ----------------------------


 * One electron integrals 
 Pre-screening matrix                    ... done
 Shell pair data                         ... done (   0.000 sec)

-------------------------------------------------------------------------------
                                 ORCA SCF
-------------------------------------------------------------------------------

------------
SCF SETTINGS
------------
Hamiltonian:
 Density Functional     Method          .... DFT(GTOs)
 Exchange Functional    Exchange        .... B88
   X-Alpha parameter    XAlpha          ....  0.666667
   Becke's b parameter  XBeta           ....  0.004200
 Correlation Functional Correlation     .... LYP
 LDA part of GGA corr.  LDAOpt          .... VWN-5
 Gradients option       PostSCFGGA      .... off
 Hybrid DFT is turned on
   Fraction HF Exchange ScalHFX         ....  0.200000
   Scaling of DF-GGA-X  ScalDFX         ....  0.720000
   Scaling of DF-GGA-C  ScalDFC         ....  0.810000
   Scaling of DF-LDA-C  ScalLDAC        ....  1.000000
   Perturbative correction              ....  0.000000
   Density functional embedding theory  .... OFF
   NL short-range parameter             ....  4.800000


General Settings:
 Integral files         IntName         .... optimisationDFTB3D3
 Hartree-Fock type      HFTyp           .... RHF
 Total Charge           Charge          ....    0
 Multiplicity           Mult            ....    1
 Number of Electrons    NEL             ....   10
 Basis Dimension        Dim             ....   24
 Nuclear Repulsion      ENuc            ....      9.1056984404 Eh

Convergence Acceleration:
 DIIS                   CNVDIIS         .... on
   Start iteration      DIISMaxIt       ....    12
   Startup error        DIISStart       ....  0.200000
   # of expansion vecs  DIISMaxEq       ....     5
   Bias factor          DIISBfac        ....   1.050
   Max. coefficient     DIISMaxC        ....  10.000
 Newton-Raphson         CNVNR           .... off
 SOSCF                  CNVSOSCF        .... on
   Start iteration      SOSCFMaxIt      ....   150
   Startup grad/error   SOSCFStart      ....  0.003300
 Level Shifting         CNVShift        .... on
   Level shift para.    LevelShift      ....    0.2500
   Turn off err/grad.   ShiftErr        ....    0.0010
 Zerner damping         CNVZerner       .... off
 Static damping         CNVDamp         .... on
   Fraction old density DampFac         ....    0.7000
   Max. Damping (<1)    DampMax         ....    0.9800
   Min. Damping (>=0)   DampMin         ....    0.0000
   Turn off err/grad.   DampErr         ....    0.1000
 Fernandez-Rico         CNVRico         .... off

SCF Procedure:
 Maximum # iterations   MaxIter         ....   125
 SCF integral mode      SCFMode         .... Direct
   Integral package                     .... LIBINT
 Reset frequency        DirectResetFreq ....    20
 Integral Threshold     Thresh          ....  2.500e-11 Eh
 Primitive CutOff       TCut            ....  2.500e-12 Eh

Convergence Tolerance:
 Convergence Check Mode ConvCheckMode   .... Total+1el-Energy
 Convergence forced     ConvForced      .... 0
 Energy Change          TolE            ....  1.000e-08 Eh
 1-El. energy change                    ....  1.000e-05 Eh
 Orbital Gradient       TolG            ....  1.000e-05
 Orbital Rotation angle TolX            ....  1.000e-05
 DIIS Error             TolErr          ....  5.000e-07


Diagonalization of the overlap matrix:
Smallest eigenvalue                        ... 3.795e-02
Time for diagonalization                   ...    0.000 sec
Threshold for overlap eigenvalues          ... 1.000e-08
Number of eigenvalues below threshold      ... 0
Time for construction of square roots      ...    0.000 sec
Total time needed                          ...    0.000 sec

---------------------
INITIAL GUESS: MOREAD
---------------------
Guess MOs are being read from file: optimisationDFTB3D3.gbw
Input Geometry matches current geometry (good)
Input basis set matches current basis set (good)
MOs were renormalized
MOs were reorthogonalized (Cholesky)
                      ------------------
                      INITIAL GUESS DONE (   0.0 sec)
                      ------------------
-------------------
DFT GRID GENERATION
-------------------

General Integration Accuracy     IntAcc      ...  4.340
Radial Grid Type                 RadialGrid  ... Gauss-Chebyshev
Angular Grid (max. acc.)         AngularGrid ... Lebedev-110
Angular grid pruning method      GridPruning ... 3 (G Style)
Weight generation scheme         WeightScheme... Becke
Basis function cutoff            BFCut       ...    1.0000e-11
Integration weight cutoff        WCut        ...    1.0000e-14
Grids for H and He will be reduced by one unit

# of grid points (after initial pruning)     ...   3304 (   0.0 sec)
# of grid points (after weights+screening)   ...   3287 (   0.0 sec)
nearest neighbour list constructed           ...    0.0 sec
Grid point re-assignment to atoms done       ...    0.0 sec
Grid point division into batches done        ...    0.0 sec
Reduced shell lists constructed in    0.0 sec

Total number of grid points                  ...     3287
Total number of batches                      ...       53
Average number of points per batch           ...       62
Average number of grid points per atom       ...     1096
Average number of shells per batch           ...    11.22 (93.52%)
Average number of basis functions per batch  ...    22.48 (93.67%)
Average number of large shells per batch     ...    10.70 (95.38%)
Average number of large basis fcns per batch ...    21.37 (95.06%)
Maximum spatial batch extension              ...  21.59, 21.59, 18.30 au
Average spatial batch extension              ...   6.00,  5.88,  5.09 au

Time for grid setup =    0.005 sec

--------------
SCF ITERATIONS
--------------
ITER       Energy         Delta-E        Max-DP      RMS-DP      [F,P]     Damp
               ***  Starting incremental Fock matrix formation  ***
                      *** Initiating the SOSCF procedure ***
                      *** Re-Reading the Fockian *** 
                      *** Removing any level shift *** 
ITER      Energy       Delta-E        Grad      Rot      Max-DP    RMS-DP
  0    -76.32145194 -76.3214519404  0.000023  0.000023  0.000056  0.000005
               *** Restarting incremental Fock matrix formation ***
  1    -76.32145194  -0.0000000041  0.000009  0.000008  0.000021  0.000002
  2    -76.32145194  -0.0000000001  0.000010  0.000006  0.000010  0.000001
                 **** Energy Check signals convergence ****
              ***Rediagonalizing the Fockian in SOSCF/NRSCF***

               *****************************************************
               *                     SUCCESS                       *
               *           SCF CONVERGED AFTER   3 CYCLES          *
               *****************************************************

Setting up the final grid:

General Integration Accuracy     IntAcc      ...  4.670
Radial Grid Type                 RadialGrid  ... Gauss-Chebyshev
Angular Grid (max. acc.)         AngularGrid ... Lebedev-302
Angular grid pruning method      GridPruning ... 3 (G Style)
Weight generation scheme         WeightScheme... Becke
Basis function cutoff            BFCut       ...    1.0000e-11
Integration weight cutoff        WCut        ...    1.0000e-14
Grids for H and He will be reduced by one unit

# of grid points (after initial pruning)     ...  13000 (   0.0 sec)
# of grid points (after weights+screening)   ...  12914 (   0.0 sec)
nearest neighbour list constructed           ...    0.0 sec
Grid point re-assignment to atoms done       ...    0.0 sec
Grid point division into batches done        ...    0.0 sec
Reduced shell lists constructed in    0.0 sec

Total number of grid points                  ...    12914
Total number of batches                      ...      204
Average number of points per batch           ...       63
Average number of grid points per atom       ...     4305
Average number of shells per batch           ...    10.28 (85.69%)
Average number of basis functions per batch  ...    20.44 (85.16%)
Average number of large shells per batch     ...     9.68 (94.17%)
Average number of large basis fcns per batch ...    19.30 (94.44%)
Maximum spatial batch extension              ...  17.08, 17.19, 16.19 au
Average spatial batch extension              ...   3.28,  3.54,  3.11 au

Final grid set up in    0.0 sec
Final integration                            ... done (   0.0 sec)
Change in XC energy                          ...     0.000288433
Integrated number of electrons               ...    10.000011407
Previous integrated no of electrons          ...    10.002218882

----------------
TOTAL SCF ENERGY
----------------

Total Energy       :          -76.32116351 Eh           -2076.80444 eV

Components:
Nuclear Repulsion  :            9.10569844 Eh             247.77865 eV
Electronic Energy  :          -85.42686195 Eh           -2324.58309 eV
One Electron Energy:         -122.95522387 Eh           -3345.78174 eV
Two Electron Energy:           37.52836191 Eh            1021.19864 eV

Virial components:
Potential Energy   :         -152.15130265 Eh           -4140.24743 eV
Kinetic Energy     :           75.83013914 Eh            2063.44299 eV
Virial Ratio       :            2.00647532


DFT components:
N(Alpha)           :        5.000005703500 electrons
N(Beta)            :        5.000005703500 electrons
N(Total)           :       10.000011407000 electrons
E(X)               :       -7.121791836990 Eh       
E(C)               :       -0.402186119234 Eh       
E(XC)              :       -7.523977956224 Eh       
DFET-embed. en.    :        0.000000000000 Eh       

---------------
SCF CONVERGENCE
---------------

  Last Energy change         ...   -2.9726e-10  Tolerance :   1.0000e-08
  Last MAX-Density change    ...    1.6516e-06  Tolerance :   1.0000e-07
  Last RMS-Density change    ...    2.0777e-07  Tolerance :   5.0000e-09
  Last Orbital Gradient      ...    8.0992e-07  Tolerance :   1.0000e-05
  Last Orbital Rotation      ...    1.2349e-06  Tolerance :   1.0000e-05

             **** THE GBW FILE WAS UPDATED (optimisationDFTB3D3.gbw) ****
             **** DENSITY FILE WAS UPDATED (optimisationDFTB3D3.scfp) ****
             **** ENERGY FILE WAS UPDATED (optimisationDFTB3D3.en.tmp) ****
             **** THE GBW FILE WAS UPDATED (optimisationDFTB3D3.gbw) ****
             **** DENSITY FILE WAS UPDATED (optimisationDFTB3D3.scfp) ****
----------------
ORBITAL ENERGIES
----------------

  NO   OCC          E(Eh)            E(eV) 
   0   2.0000     -19.116516      -520.1868 
   1   2.0000      -0.976261       -26.5654 
   2   2.0000      -0.508038       -13.8244 
   3   2.0000      -0.364416        -9.9163 
   4   2.0000      -0.288531        -7.8513 
   5   0.0000       0.047719         1.2985 
   6   0.0000       0.126997         3.4558 
   7   0.0000       0.558213        15.1897 
   8   0.0000       0.623378        16.9630 
   9   0.0000       0.920332        25.0435 
  10   0.0000       0.922245        25.0956 
  11   0.0000       1.008875        27.4529 
  12   0.0000       1.097424        29.8624 
  13   0.0000       1.351065        36.7643 
  14   0.0000       1.397943        38.0400 
  15   0.0000       1.544982        42.0411 
  16   0.0000       1.789440        48.6931 
  17   0.0000       2.201622        59.9092 
  18   0.0000       2.248774        61.1922 
  19   0.0000       2.964088        80.6569 
  20   0.0000       3.000360        81.6439 
  21   0.0000       3.187913        86.7475 
  22   0.0000       3.485488        94.8449 
  23   0.0000       3.823020       104.0297 

                    ********************************
                    * MULLIKEN POPULATION ANALYSIS *
                    ********************************

-----------------------
MULLIKEN ATOMIC CHARGES
-----------------------
   0 O :   -0.295990
   1 H :    0.147912
   2 H :    0.148078
Sum of atomic charges:    0.0000000

--------------------------------
MULLIKEN REDUCED ORBITAL CHARGES
--------------------------------
  0 O s       :     3.687462  s :     3.687462
      pz      :     1.320949  p :     4.597598
      px      :     1.467862
      py      :     1.808788
      dz2     :     0.001483  d :     0.010930
      dxz     :     0.004305
      dyz     :     0.000728
      dx2y2   :     0.002324
      dxy     :     0.002091
  1 H s       :     0.781815  s :     0.781815
      pz      :     0.022044  p :     0.070273
      px      :     0.027265
      py      :     0.020964
  2 H s       :     0.781749  s :     0.781749
      pz      :     0.030716  p :     0.070173
      px      :     0.017832
      py      :     0.021625


                     *******************************
                     * LOEWDIN POPULATION ANALYSIS *
                     *******************************

----------------------
LOEWDIN ATOMIC CHARGES
----------------------
   0 O :   -0.150953
   1 H :    0.075482
   2 H :    0.075472

-------------------------------
LOEWDIN REDUCED ORBITAL CHARGES
-------------------------------
  0 O s       :     3.440043  s :     3.440043
      pz      :     1.378195  p :     4.690800
      px      :     1.542621
      py      :     1.769984
      dz2     :     0.003293  d :     0.020110
      dxz     :     0.008357
      dyz     :     0.002306
      dx2y2   :     0.003354
      dxy     :     0.002800
  1 H s       :     0.749689  s :     0.749689
      pz      :     0.044239  p :     0.174829
      px      :     0.076907
      py      :     0.053683
  2 H s       :     0.749655  s :     0.749655
      pz      :     0.073389  p :     0.174873
      px      :     0.045573
      py      :     0.055912


                      *****************************
                      * MAYER POPULATION ANALYSIS *
                      *****************************

  NA   - Mulliken gross atomic population
  ZA   - Total nuclear charge
  QA   - Mulliken gross atomic charge
  VA   - Mayer's total valence
  BVA  - Mayer's bonded valence
  FA   - Mayer's free valence

  ATOM       NA         ZA         QA         VA         BVA        FA
  0 O      8.2960     8.0000    -0.2960     2.0154     2.0154    -0.0000
  1 H      0.8521     1.0000     0.1479     1.0134     1.0134     0.0000
  2 H      0.8519     1.0000     0.1481     1.0129     1.0129    -0.0000

  Mayer bond orders larger than 0.100000
B(  0-O ,  1-H ) :   1.0079 B(  0-O ,  2-H ) :   1.0075 

-------
TIMINGS
-------

Total SCF time: 0 days 0 hours 0 min 0 sec 

Total time                  ....       0.497 sec
Sum of individual times     ....       0.374 sec  ( 75.3%)

Fock matrix formation       ....       0.328 sec  ( 65.9%)
  XC integration            ....       0.032 sec  (  9.8% of F)
    Basis function eval.    ....       0.009 sec  ( 28.4% of XC)
    Density eval.           ....       0.007 sec  ( 21.7% of XC)
    XC-Functional eval.     ....       0.008 sec  ( 23.8% of XC)
    XC-Potential eval.      ....       0.004 sec  ( 13.8% of XC)
Diagonalization             ....       0.000 sec  (  0.0%)
Density matrix formation    ....       0.000 sec  (  0.0%)
Population analysis         ....       0.001 sec  (  0.2%)
Initial guess               ....       0.001 sec  (  0.2%)
Orbital Transformation      ....       0.000 sec  (  0.0%)
Orbital Orthonormalization  ....       0.000 sec  (  0.0%)
DIIS solution               ....       0.000 sec  (  0.0%)
SOSCF solution              ....       0.000 sec  (  0.1%)
Grid generation             ....       0.045 sec  (  9.0%)


-------------------------------------------------------------------------------
                          DFT DISPERSION CORRECTION                            
                                                                               
                              DFTD3 V3.1  Rev 1                                
                          USING Becke-Johnson damping                          
-------------------------------------------------------------------------------
The B3LYP functional is recognized
Active option DFTDOPT                   ...         4   

molecular C6(AA) [au] = 44.536648 


            DFT-D V3
 parameters
 s6 scaling factor         :     1.0000 
 a1 scaling factor         :     0.3981 
 s8 scaling factor         :     1.9889 
 a2 scaling factor         :     4.4211 
 ad hoc parameters k1-k3   :    16.0000     1.3333    -4.0000 

 Edisp/kcal,au: -0.360158761512  -0.000573949459 
 E6   /kcal   :  -0.196960648 
 E8   /kcal   :  -0.163198113 
 % E8         :  45.312826147 

-------------------------   ----------------
Dispersion correction           -0.000573949
-------------------------   ----------------


-------------------------   --------------------
FINAL SINGLE POINT ENERGY       -76.321737461701
-------------------------   --------------------

                                *** OPTIMIZATION RUN DONE ***

                            ***************************************
                            *     ORCA property calculations      *
                            ***************************************

                                    ---------------------
                                    Active property flags
                                    ---------------------
   (+) Dipole Moment


------------------------------------------------------------------------------
                       ORCA ELECTRIC PROPERTIES CALCULATION
------------------------------------------------------------------------------

Dipole Moment Calculation                       ... on
Quadrupole Moment Calculation                   ... off
Polarizability Calculation                      ... off
GBWName                                         ... optimisationDFTB3D3.gbw
Electron density file                           ... optimisationDFTB3D3.scfp
The origin for moment calculation is the CENTER OF MASS  = (-5.509143,  3.809032 -0.274986)

-------------
DIPOLE MOMENT
-------------
                                X             Y             Z
Electronic contribution:     -0.20173      -0.00967       0.06299
Nuclear contribution   :      0.95468       0.04461      -0.29804
                        -----------------------------------------
Total Dipole Moment    :      0.75295       0.03494      -0.23505
                        -----------------------------------------
Magnitude (a.u.)       :      0.78956
Magnitude (Debye)      :      2.00690



--------------------
Rotational spectrum 
--------------------
 
Rotational constants in cm-1:    26.035207    14.584681     9.348012 
Rotational constants in MHz : 780515.878856 437237.725687 280246.337568 

 Dipole components along the rotational axes: 
x,y,z [a.u.] :     0.000327    -0.789560     0.000212 
x,y,z [Debye]:     0.000830    -2.006902     0.000540 

 

Timings for individual modules:

Sum of individual times         ...       19.457 sec (=   0.324 min)
GTO integral calculation        ...        2.463 sec (=   0.041 min)  12.7 %
SCF iterations                  ...       13.759 sec (=   0.229 min)  70.7 %
SCF Gradient evaluation         ...        2.836 sec (=   0.047 min)  14.6 %
Geometry relaxation             ...        0.399 sec (=   0.007 min)   2.1 %
                             ****ORCA TERMINATED NORMALLY****
TOTAL RUN TIME: 0 days 0 hours 0 minutes 20 seconds 426 msec
