
                                 *****************
                                 * O   R   C   A *
                                 *****************

           --- An Ab Initio, DFT and Semiempirical electronic structure package ---

                  #######################################################
                  #                        -***-                        #
                  #          Department of theory and spectroscopy      #
                  #               Directorship: Frank Neese             #
                  #        Max Planck Institute fuer Kohlenforschung    #
                  #                Kaiser Wilhelm Platz 1               #
                  #                 D-45470 Muelheim/Ruhr               #
                  #                      Germany                        #
                  #                                                     #
                  #                  All rights reserved                #
                  #                        -***-                        #
                  #######################################################


                         Program Version 4.2.1 -  RELEASE  -


 With contributions from (in alphabetic order):
   Daniel Aravena         : Magnetic Suceptibility
   Michael Atanasov       : Ab Initio Ligand Field Theory (pilot matlab implementation)
   Alexander A. Auer      : GIAO ZORA, VPT2
   Ute Becker             : Parallelization
   Giovanni Bistoni       : ED, misc. LED, open-shell LED, HFLD
   Martin Brehm           : Molecular dynamics
   Dmytro Bykov           : SCF Hessian
   Vijay G. Chilkuri      : MRCI spin determinant printing, contributions to CSF-ICE
   Dipayan Datta          : RHF DLPNO-CCSD density
   Achintya Kumar Dutta   : EOM-CC, STEOM-CC
   Dmitry Ganyushin       : Spin-Orbit,Spin-Spin,Magnetic field MRCI
   Miquel Garcia          : C-PCM Hessian, Gaussian charge scheme
   Yang Guo               : DLPNO-NEVPT2, CIM, IAO-localization
   Andreas Hansen         : Spin unrestricted coupled pair/coupled cluster methods
   Benjamin Helmich-Paris : CASSCF linear response (MC-RPA)
   Lee Huntington         : MR-EOM, pCC
   Robert Izsak           : Overlap fitted RIJCOSX, COSX-SCS-MP3, EOM
   Christian Kollmar      : KDIIS, OOCD, Brueckner-CCSD(T), CCSD density
   Simone Kossmann        : Meta GGA functionals, TD-DFT gradient, OOMP2, MP2 Hessian
   Martin Krupicka        : AUTO-CI
   Lucas Lang             : DCDCAS
   Dagmar Lenk            : GEPOL surface, SMD
   Dimitrios Liakos       : Extrapolation schemes; Compound Job, initial MDCI parallelization
   Dimitrios Manganas     : Further ROCIS development; embedding schemes
   Dimitrios Pantazis     : SARC Basis sets
   Taras Petrenko         : DFT Hessian,TD-DFT gradient, ASA, ECA, R-Raman, ABS, FL, XAS/XES, NRVS
   Peter Pinski           : DLPNO-MP2, DLPNO-MP2 Gradient
   Christoph Reimann      : Effective Core Potentials
   Marius Retegan         : Local ZFS, SOC
   Christoph Riplinger    : Optimizer, TS searches, QM/MM, DLPNO-CCSD(T), (RO)-DLPNO pert. Triples
   Tobias Risthaus        : Range-separated hybrids, TD-DFT gradient, RPA, STAB
   Michael Roemelt        : Original ROCIS implementation
   Masaaki Saitow         : Open-shell DLPNO-CCSD energy and density
   Barbara Sandhoefer     : DKH picture change effects
   Avijit Sen             : IP-ROCIS
   Kantharuban Sivalingam : CASSCF convergence, NEVPT2, FIC-MRCI
   Bernardo de Souza      : ESD, SOC TD-DFT
   Georgi Stoychev        : AutoAux, RI-MP2 NMR
   Willem Van den Heuvel  : Paramagnetic NMR
   Boris Wezisla          : Elementary symmetry handling
   Frank Wennmohs         : Technical directorship


 We gratefully acknowledge several colleagues who have allowed us to
 interface, adapt or use parts of their codes:
   Stefan Grimme, W. Hujo, H. Kruse,             : VdW corrections, initial TS optimization,
                  C. Bannwarth                     DFT functionals, gCP, sTDA/sTD-DF
   Ed Valeev, F. Pavosevic, A. Kumar             : LibInt (2-el integral package), F12 methods
   Garnet Chan, S. Sharma, J. Yang, R. Olivares  : DMRG
   Ulf Ekstrom                                   : XCFun DFT Library
   Mihaly Kallay                                 : mrcc  (arbitrary order and MRCC methods)
   Andreas Klamt, Michael Diedenhofen            : otool_cosmo (COSMO solvation model)
   Jiri Pittner, Ondrej Demel                    : Mk-CCSD
   Frank Weinhold                                : gennbo (NPA and NBO analysis)
   Christopher J. Cramer and Donald G. Truhlar   : smd solvation model
   Lars Goerigk                                  : TD-DFT with DH, B97 family of functionals
   V. Asgeirsson, H. Jonsson                     : NEB implementation
   FAccTs GmbH                                   : IRC, NEB, NEB-TS, Multilevel, MM, QM/MM, CI optimization
   S Lehtola, MJT Oliveira, MAL Marques          : LibXC Library


 Your calculation uses the libint2 library for the computation of 2-el integrals
 For citations please refer to: http://libint.valeyev.net

 Your ORCA version has been built with support for libXC version: 4.2.3
 For citations please refer to: https://tddft.org/programs/libxc/

 This ORCA versions uses:
   CBLAS   interface :  Fast vector & matrix operations
   LAPACKE interface :  Fast linear algebra routines
   SCALAPACK package :  Parallel linear algebra routines




***************************************
The coordinates will be read from file: water.xyz
***************************************


----- Orbital basis set information -----
Your calculation utilizes the basis: def2-SVP
   F. Weigend and R. Ahlrichs, Phys. Chem. Chem. Phys. 7, 3297 (2005).

================================================================================
                                        WARNINGS
                       Please study these warnings very carefully!
================================================================================


INFO   : the flag for use of LIBINT has been found!

================================================================================
                                       INPUT FILE
================================================================================
NAME = water.txt
|  1> #Hartree Fock
|  2> !HF DEF2-SVP
|  3> 
|  4> #filename
|  5> 
|  6> *xyzfile 0 1 water.xyz
|  7> %base "single_point_water""                         ****END OF INPUT****
================================================================================

                       ****************************
                       * Single Point Calculation *
                       ****************************

---------------------------------
CARTESIAN COORDINATES (ANGSTROEM)
---------------------------------
  O     -3.319480    1.987730    0.000000
  H     -1.893830    1.527550    0.682490
  H     -2.578200    2.576280   -1.417000

----------------------------
CARTESIAN COORDINATES (A.U.)
----------------------------
  NO LB      ZA    FRAG     MASS         X           Y           Z
   0 O     8.0000    0    15.999   -6.272908    3.756265    0.000000
   1 H     1.0000    0     1.008   -3.578820    2.886651    1.289719
   2 H     1.0000    0     1.008   -4.872092    4.868464   -2.677742

--------------------------------
INTERNAL COORDINATES (ANGSTROEM)
--------------------------------
 O      0   0   0     0.000000000000     0.00000000     0.00000000
 H      1   0   0     1.646218744578     0.00000000     0.00000000
 H      1   2   0     1.704046989053    93.70190767     0.00000000

---------------------------
INTERNAL COORDINATES (A.U.)
---------------------------
 O      0   0   0     0.000000000000     0.00000000     0.00000000
 H      1   0   0     3.110902583780     0.00000000     0.00000000
 H      1   2   0     3.220182128643    93.70190767     0.00000000

---------------------
BASIS SET INFORMATION
---------------------
There are 2 groups of distinct atoms

 Group   1 Type O   : 7s4p1d contracted to 3s2p1d pattern {511/31/1}
 Group   2 Type H   : 4s1p contracted to 2s1p pattern {31/1}

Atom   0O    basis set group =>   1
Atom   1H    basis set group =>   2
Atom   2H    basis set group =>   2

Checking for AutoStart:
The File: single_point_water.gbw exists
Trying to determine its content:
     ... Fine, the file contains calculation information
     ... Fine, the calculation information was read
     ... Fine, the file contains a basis set
     ... Fine, the basis set was read
     ... Fine, the file contains a geometry
     ... Fine, the geometry was read
     ... Fine, the file contains a set of orbitals
     ... Fine, the orbitals can be read
     => possible old guess file was deleted
     => GBW file was renamed to GES file
     => GES file is set as startup file
     => Guess is set to MORead
     ... now leaving AutoStart

------------------------------------------------------------------------------
                           ORCA GTO INTEGRAL CALCULATION
------------------------------------------------------------------------------

                         BASIS SET STATISTICS AND STARTUP INFO

 # of primitive gaussian shells          ...   22
 # of primitive gaussian functions       ...   38
 # of contracted shells                  ...   12
 # of contracted basis functions         ...   24
 Highest angular momentum                ...    2
 Maximum contraction depth               ...    5
 Integral package used                   ... LIBINT
 Integral threshhold            Thresh   ...  1.000e-10
 Primitive cut-off              TCut     ...  1.000e-11


------------------------------ INTEGRAL EVALUATION ----------------------------


 * One electron integrals 
 Pre-screening matrix                    ... done
 Shell pair data                         ... done (   0.000 sec)

-------------------------------------------------------------------------------
                                 ORCA SCF
-------------------------------------------------------------------------------

------------
SCF SETTINGS
------------
Hamiltonian:
 Ab initio Hamiltonian  Method          .... Hartree-Fock(GTOs)


General Settings:
 Integral files         IntName         .... single_point_water
 Hartree-Fock type      HFTyp           .... RHF
 Total Charge           Charge          ....    0
 Multiplicity           Mult            ....    1
 Number of Electrons    NEL             ....   10
 Basis Dimension        Dim             ....   24
 Nuclear Repulsion      ENuc            ....      5.2724005323 Eh

Convergence Acceleration:
 DIIS                   CNVDIIS         .... on
   Start iteration      DIISMaxIt       ....    12
   Startup error        DIISStart       ....  0.200000
   # of expansion vecs  DIISMaxEq       ....     5
   Bias factor          DIISBfac        ....   1.050
   Max. coefficient     DIISMaxC        ....  10.000
 Newton-Raphson         CNVNR           .... off
 SOSCF                  CNVSOSCF        .... on
   Start iteration      SOSCFMaxIt      ....   150
   Startup grad/error   SOSCFStart      ....  0.003300
 Level Shifting         CNVShift        .... on
   Level shift para.    LevelShift      ....    0.2500
   Turn off err/grad.   ShiftErr        ....    0.0010
 Zerner damping         CNVZerner       .... off
 Static damping         CNVDamp         .... on
   Fraction old density DampFac         ....    0.7000
   Max. Damping (<1)    DampMax         ....    0.9800
   Min. Damping (>=0)   DampMin         ....    0.0000
   Turn off err/grad.   DampErr         ....    0.1000
 Fernandez-Rico         CNVRico         .... off

SCF Procedure:
 Maximum # iterations   MaxIter         ....   125
 SCF integral mode      SCFMode         .... Direct
   Integral package                     .... LIBINT
 Reset frequency        DirectResetFreq ....    20
 Integral Threshold     Thresh          ....  1.000e-10 Eh
 Primitive CutOff       TCut            ....  1.000e-11 Eh

Convergence Tolerance:
 Convergence Check Mode ConvCheckMode   .... Total+1el-Energy
 Convergence forced     ConvForced      .... 0
 Energy Change          TolE            ....  1.000e-06 Eh
 1-El. energy change                    ....  1.000e-03 Eh
 Orbital Gradient       TolG            ....  5.000e-05
 Orbital Rotation angle TolX            ....  5.000e-05
 DIIS Error             TolErr          ....  1.000e-06


Diagonalization of the overlap matrix:
Smallest eigenvalue                        ... 1.136e-01
Time for diagonalization                   ...    0.001 sec
Threshold for overlap eigenvalues          ... 1.000e-08
Number of eigenvalues below threshold      ... 0
Time for construction of square roots      ...    0.001 sec
Total time needed                          ...    0.001 sec

---------------------
INITIAL GUESS: MOREAD
---------------------
Guess MOs are being read from file: single_point_water.ges
Input Geometry matches current geometry (good)
Input basis set matches current basis set (good)
MOs were renormalized
MOs were reorthogonalized (Cholesky)
                      ------------------
                      INITIAL GUESS DONE (   0.0 sec)
                      ------------------
--------------
SCF ITERATIONS
--------------
ITER       Energy         Delta-E        Max-DP      RMS-DP      [F,P]     Damp
               ***  Starting incremental Fock matrix formation  ***
                      *** Initiating the SOSCF procedure ***
                      *** Re-Reading the Fockian *** 
                      *** Removing any level shift *** 
ITER      Energy       Delta-E        Grad      Rot      Max-DP    RMS-DP
  0    -75.63321373 -75.6332137280  0.000039  0.000039  0.000032  0.000004
               *** Restarting incremental Fock matrix formation ***
                 **** Energy Check signals convergence ****
              ***Rediagonalizing the Fockian in SOSCF/NRSCF***

               *****************************************************
               *                     SUCCESS                       *
               *           SCF CONVERGED AFTER   1 CYCLES          *
               *****************************************************


----------------
TOTAL SCF ENERGY
----------------

Total Energy       :          -75.63321374 Eh           -2058.08438 eV

Components:
Nuclear Repulsion  :            5.27240053 Eh             143.46931 eV
Electronic Energy  :          -80.90561427 Eh           -2201.55369 eV
One Electron Energy:         -115.27658766 Eh           -3136.83542 eV
Two Electron Energy:           34.37097339 Eh             935.28173 eV

Virial components:
Potential Energy   :         -150.45116070 Eh           -4093.98422 eV
Kinetic Energy     :           74.81794696 Eh            2035.89984 eV
Virial Ratio       :            2.01089667


---------------
SCF CONVERGENCE
---------------

  Last Energy change         ...   -7.1092e-09  Tolerance :   1.0000e-06
  Last MAX-Density change    ...    3.1483e-05  Tolerance :   1.0000e-05
  Last RMS-Density change    ...    3.3651e-06  Tolerance :   1.0000e-06
  Last Orbital Gradient      ...    1.8944e-05  Tolerance :   5.0000e-05
  Last Orbital Rotation      ...    3.8082e-05  Tolerance :   5.0000e-05

             **** THE GBW FILE WAS UPDATED (single_point_water.gbw) ****
             **** DENSITY FILE WAS UPDATED (single_point_water.scfp) ****
             **** ENERGY FILE WAS UPDATED (single_point_water.en.tmp) ****
             **** THE GBW FILE WAS UPDATED (single_point_water.gbw) ****
             **** DENSITY FILE WAS UPDATED (single_point_water.scfp) ****
----------------
ORBITAL ENERGIES
----------------

  NO   OCC          E(Eh)            E(eV) 
   0   2.0000     -20.646621      -561.8231 
   1   2.0000      -1.182579       -32.1796 
   2   2.0000      -0.507683       -13.8148 
   3   2.0000      -0.473020       -12.8715 
   4   2.0000      -0.457383       -12.4460 
   5   0.0000       0.024423         0.6646 
   6   0.0000       0.051014         1.3882 
   7   0.0000       0.604303        16.4439 
   8   0.0000       0.630322        17.1519 
   9   0.0000       1.116343        30.3772 
  10   0.0000       1.155437        31.4410 
  11   0.0000       1.261760        34.3342 
  12   0.0000       1.285133        34.9702 
  13   0.0000       1.604579        43.6628 
  14   0.0000       1.631458        44.3942 
  15   0.0000       1.641538        44.6685 
  16   0.0000       1.688506        45.9466 
  17   0.0000       1.826449        49.7002 
  18   0.0000       2.118529        57.6481 
  19   0.0000       2.995844        81.5211 
  20   0.0000       2.999656        81.6248 
  21   0.0000       3.003239        81.7223 
  22   0.0000       3.114120        84.7395 
  23   0.0000       3.220493        87.6341 

                    ********************************
                    * MULLIKEN POPULATION ANALYSIS *
                    ********************************

-----------------------
MULLIKEN ATOMIC CHARGES
-----------------------
   0 O :   -0.418549
   1 H :    0.218164
   2 H :    0.200385
Sum of atomic charges:   -0.0000000

--------------------------------
MULLIKEN REDUCED ORBITAL CHARGES
--------------------------------
  0 O s       :     3.970102  s :     3.970102
      pz      :     1.366150  p :     4.445550
      px      :     1.222725
      py      :     1.856675
      dz2     :     0.000406  d :     0.002897
      dxz     :     0.001146
      dyz     :     0.000245
      dx2y2   :     0.000668
      dxy     :     0.000432
  1 H s       :     0.772623  s :     0.772623
      pz      :     0.002029  p :     0.009213
      px      :     0.005668
      py      :     0.001515
  2 H s       :     0.792161  s :     0.792161
      pz      :     0.004313  p :     0.007453
      px      :     0.001725
      py      :     0.001415


                     *******************************
                     * LOEWDIN POPULATION ANALYSIS *
                     *******************************

----------------------
LOEWDIN ATOMIC CHARGES
----------------------
   0 O :   -0.373706
   1 H :    0.193005
   2 H :    0.180701

-------------------------------
LOEWDIN REDUCED ORBITAL CHARGES
-------------------------------
  0 O s       :     3.921524  s :     3.921524
      pz      :     1.369489  p :     4.449136
      px      :     1.223321
      py      :     1.856325
      dz2     :     0.000439  d :     0.003046
      dxz     :     0.001204
      dyz     :     0.000276
      dx2y2   :     0.000678
      dxy     :     0.000449
  1 H s       :     0.788783  s :     0.788783
      pz      :     0.003763  p :     0.018212
      px      :     0.011586
      py      :     0.002863
  2 H s       :     0.804891  s :     0.804891
      pz      :     0.008338  p :     0.014408
      px      :     0.003443
      py      :     0.002627


                      *****************************
                      * MAYER POPULATION ANALYSIS *
                      *****************************

  NA   - Mulliken gross atomic population
  ZA   - Total nuclear charge
  QA   - Mulliken gross atomic charge
  VA   - Mayer's total valence
  BVA  - Mayer's bonded valence
  FA   - Mayer's free valence

  ATOM       NA         ZA         QA         VA         BVA        FA
  0 O      8.4185     8.0000    -0.4185     1.9022     1.9022    -0.0000
  1 H      0.7818     1.0000     0.2182     0.9487     0.9487    -0.0000
  2 H      0.7996     1.0000     0.2004     0.9563     0.9563    -0.0000

  Mayer bond orders larger than 0.100000
B(  0-O ,  1-H ) :   0.9473 B(  0-O ,  2-H ) :   0.9549 

-------
TIMINGS
-------

Total SCF time: 0 days 0 hours 0 min 0 sec 

Total time                  ....       0.293 sec
Sum of individual times     ....       0.165 sec  ( 56.3%)

Fock matrix formation       ....       0.159 sec  ( 54.4%)
Diagonalization             ....       0.000 sec  (  0.0%)
Density matrix formation    ....       0.000 sec  (  0.1%)
Population analysis         ....       0.001 sec  (  0.3%)
Initial guess               ....       0.003 sec  (  1.2%)
Orbital Transformation      ....       0.000 sec  (  0.0%)
Orbital Orthonormalization  ....       0.002 sec  (  0.6%)
DIIS solution               ....       0.000 sec  (  0.0%)
SOSCF solution              ....       0.001 sec  (  0.3%)

-------------------------   --------------------
FINAL SINGLE POINT ENERGY       -75.633213735111
-------------------------   --------------------


                            ***************************************
                            *     ORCA property calculations      *
                            ***************************************

                                    ---------------------
                                    Active property flags
                                    ---------------------
   (+) Dipole Moment


------------------------------------------------------------------------------
                       ORCA ELECTRIC PROPERTIES CALCULATION
------------------------------------------------------------------------------

Dipole Moment Calculation                       ... on
Quadrupole Moment Calculation                   ... off
Polarizability Calculation                      ... off
GBWName                                         ... single_point_water.gbw
Electron density file                           ... single_point_water.scfp
The origin for moment calculation is the CENTER OF MASS  = (-6.043784,  3.769839 -0.077665)

-------------
DIPOLE MOMENT
-------------
                                X             Y             Z
Electronic contribution:     -0.87052      -0.06913       0.33265
Nuclear contribution   :      1.80367       0.10685      -0.61138
                        -----------------------------------------
Total Dipole Moment    :      0.93315       0.03772      -0.27873
                        -----------------------------------------
Magnitude (a.u.)       :      0.97462
Magnitude (Debye)      :      2.47729



--------------------
Rotational spectrum 
--------------------
 
Rotational constants in cm-1:     7.210185     5.573702     3.143600 
Rotational constants in MHz : 216155.909697 167095.391340 94242.749401 

 Dipole components along the rotational axes: 
x,y,z [a.u.] :    -0.110536    -0.968331     0.000000 
x,y,z [Debye]:    -0.280959    -2.461303     0.000000 

 

Timings for individual modules:

Sum of individual times         ...        0.552 sec (=   0.009 min)
GTO integral calculation        ...        0.225 sec (=   0.004 min)  40.8 %
SCF iterations                  ...        0.327 sec (=   0.005 min)  59.2 %
                             ****ORCA TERMINATED NORMALLY****
TOTAL RUN TIME: 0 days 0 hours 0 minutes 0 seconds 688 msec
