
                                 *****************
                                 * O   R   C   A *
                                 *****************

           --- An Ab Initio, DFT and Semiempirical electronic structure package ---

                  #######################################################
                  #                        -***-                        #
                  #          Department of theory and spectroscopy      #
                  #               Directorship: Frank Neese             #
                  #        Max Planck Institute fuer Kohlenforschung    #
                  #                Kaiser Wilhelm Platz 1               #
                  #                 D-45470 Muelheim/Ruhr               #
                  #                      Germany                        #
                  #                                                     #
                  #                  All rights reserved                #
                  #                        -***-                        #
                  #######################################################


                         Program Version 4.2.1 -  RELEASE  -


 With contributions from (in alphabetic order):
   Daniel Aravena         : Magnetic Suceptibility
   Michael Atanasov       : Ab Initio Ligand Field Theory (pilot matlab implementation)
   Alexander A. Auer      : GIAO ZORA, VPT2
   Ute Becker             : Parallelization
   Giovanni Bistoni       : ED, misc. LED, open-shell LED, HFLD
   Martin Brehm           : Molecular dynamics
   Dmytro Bykov           : SCF Hessian
   Vijay G. Chilkuri      : MRCI spin determinant printing, contributions to CSF-ICE
   Dipayan Datta          : RHF DLPNO-CCSD density
   Achintya Kumar Dutta   : EOM-CC, STEOM-CC
   Dmitry Ganyushin       : Spin-Orbit,Spin-Spin,Magnetic field MRCI
   Miquel Garcia          : C-PCM Hessian, Gaussian charge scheme
   Yang Guo               : DLPNO-NEVPT2, CIM, IAO-localization
   Andreas Hansen         : Spin unrestricted coupled pair/coupled cluster methods
   Benjamin Helmich-Paris : CASSCF linear response (MC-RPA)
   Lee Huntington         : MR-EOM, pCC
   Robert Izsak           : Overlap fitted RIJCOSX, COSX-SCS-MP3, EOM
   Christian Kollmar      : KDIIS, OOCD, Brueckner-CCSD(T), CCSD density
   Simone Kossmann        : Meta GGA functionals, TD-DFT gradient, OOMP2, MP2 Hessian
   Martin Krupicka        : AUTO-CI
   Lucas Lang             : DCDCAS
   Dagmar Lenk            : GEPOL surface, SMD
   Dimitrios Liakos       : Extrapolation schemes; Compound Job, initial MDCI parallelization
   Dimitrios Manganas     : Further ROCIS development; embedding schemes
   Dimitrios Pantazis     : SARC Basis sets
   Taras Petrenko         : DFT Hessian,TD-DFT gradient, ASA, ECA, R-Raman, ABS, FL, XAS/XES, NRVS
   Peter Pinski           : DLPNO-MP2, DLPNO-MP2 Gradient
   Christoph Reimann      : Effective Core Potentials
   Marius Retegan         : Local ZFS, SOC
   Christoph Riplinger    : Optimizer, TS searches, QM/MM, DLPNO-CCSD(T), (RO)-DLPNO pert. Triples
   Tobias Risthaus        : Range-separated hybrids, TD-DFT gradient, RPA, STAB
   Michael Roemelt        : Original ROCIS implementation
   Masaaki Saitow         : Open-shell DLPNO-CCSD energy and density
   Barbara Sandhoefer     : DKH picture change effects
   Avijit Sen             : IP-ROCIS
   Kantharuban Sivalingam : CASSCF convergence, NEVPT2, FIC-MRCI
   Bernardo de Souza      : ESD, SOC TD-DFT
   Georgi Stoychev        : AutoAux, RI-MP2 NMR
   Willem Van den Heuvel  : Paramagnetic NMR
   Boris Wezisla          : Elementary symmetry handling
   Frank Wennmohs         : Technical directorship


 We gratefully acknowledge several colleagues who have allowed us to
 interface, adapt or use parts of their codes:
   Stefan Grimme, W. Hujo, H. Kruse,             : VdW corrections, initial TS optimization,
                  C. Bannwarth                     DFT functionals, gCP, sTDA/sTD-DF
   Ed Valeev, F. Pavosevic, A. Kumar             : LibInt (2-el integral package), F12 methods
   Garnet Chan, S. Sharma, J. Yang, R. Olivares  : DMRG
   Ulf Ekstrom                                   : XCFun DFT Library
   Mihaly Kallay                                 : mrcc  (arbitrary order and MRCC methods)
   Andreas Klamt, Michael Diedenhofen            : otool_cosmo (COSMO solvation model)
   Jiri Pittner, Ondrej Demel                    : Mk-CCSD
   Frank Weinhold                                : gennbo (NPA and NBO analysis)
   Christopher J. Cramer and Donald G. Truhlar   : smd solvation model
   Lars Goerigk                                  : TD-DFT with DH, B97 family of functionals
   V. Asgeirsson, H. Jonsson                     : NEB implementation
   FAccTs GmbH                                   : IRC, NEB, NEB-TS, Multilevel, MM, QM/MM, CI optimization
   S Lehtola, MJT Oliveira, MAL Marques          : LibXC Library


 Your calculation uses the libint2 library for the computation of 2-el integrals
 For citations please refer to: http://libint.valeyev.net

 Your ORCA version has been built with support for libXC version: 4.2.3
 For citations please refer to: https://tddft.org/programs/libxc/

 This ORCA versions uses:
   CBLAS   interface :  Fast vector & matrix operations
   LAPACKE interface :  Fast linear algebra routines
   SCALAPACK package :  Parallel linear algebra routines




***************************************
The coordinates will be read from file: ../single_point_energy/hydrogen.xyz
***************************************


----- Orbital basis set information -----
Your calculation utilizes the basis: 6-31G
   H-He, Li-Ne : W. J. Hehre, R. Ditchfield and J.A. Pople, J. Chem. Phys. 56, 2257 (1972).
                 Note: He and Ne are unpublished basis sets taken from the Gaussian program.
                 Note: Li and B from J. D. Dill and J. A. Pople, J. Chem. Phys. 62, 2921 (1975).
   Na - Ar     : M. M. Francl, W. J. Pietro, W. J. Hehre, J. S. Binkley, M. S. Gordon, 
                 D. J. DeFrees and J. A. Pople, J. Chem. Phys. 77, 3654 (1982).
   K - Zn      : V. A. Rassolov, J. A. Pople, M. A. Ratner, and T. L. Windus, J. Chem. Phys. 109, 1223 (1998).

================================================================================
                                        WARNINGS
                       Please study these warnings very carefully!
================================================================================


WARNING: Geometry Optimization
  ===> : Switching off AutoStart
         For restart on a previous wavefunction, please use MOREAD

INFO   : the flag for use of LIBINT has been found!

================================================================================
                                       INPUT FILE
================================================================================
NAME = DFT_freqHydrogen.txt
|  1> ! DFT B3LYP 6-31G Opt Freq
|  2> 
|  3> *xyzfile 0 1 ../single_point_energy/hydrogen.xyz
|  4> %base "frequencyHydrogenDFT""                         ****END OF INPUT****
================================================================================

                       *****************************
                       * Geometry Optimization Run *
                       *****************************

Geometry optimization settings:
Update method            Update   .... BFGS
Choice of coordinates    CoordSys .... Z-matrix Internals
Initial Hessian          InHess   .... Almoef's Model

Convergence Tolerances:
Energy Change            TolE     ....  5.0000e-06 Eh
Max. Gradient            TolMAXG  ....  3.0000e-04 Eh/bohr
RMS Gradient             TolRMSG  ....  1.0000e-04 Eh/bohr
Max. Displacement        TolMAXD  ....  4.0000e-03 bohr
RMS Displacement         TolRMSD  ....  2.0000e-03 bohr
Strict Convergence                ....  False
------------------------------------------------------------------------------
                        ORCA OPTIMIZATION COORDINATE SETUP
------------------------------------------------------------------------------

The optimization will be done in new redundant internal coordinates
Making redundant internal coordinates   ...  (new redundants) done
Evaluating the initial hessian          ...  (Almloef) done
Evaluating the coordinates              ...  done
Calculating the B-matrix                .... done
Calculating the G-matrix                .... done
Diagonalizing the G-matrix              .... done
The first mode is                       ....    0
The number of degrees of freedom        ....    1

    -----------------------------------------------------------------
                    Redundant Internal Coordinates


    -----------------------------------------------------------------
         Definition                    Initial Value    Approx d2E/dq
    -----------------------------------------------------------------
      1. B(H   1,H   0)                  2.4184         0.000524   
    -----------------------------------------------------------------

Number of atoms                         .... 2
Number of degrees of freedom            .... 1

         *************************************************************
         *                GEOMETRY OPTIMIZATION CYCLE   1            *
         *************************************************************
---------------------------------
CARTESIAN COORDINATES (ANGSTROEM)
---------------------------------
  H     -5.819090    1.546010    0.000000
  H     -3.419470    1.847190   -0.000000

----------------------------
CARTESIAN COORDINATES (A.U.)
----------------------------
  NO LB      ZA    FRAG     MASS         X           Y           Z
   0 H     1.0000    0     1.008  -10.996486    2.921536    0.000000
   1 H     1.0000    0     1.008   -6.461862    3.490683   -0.000000

--------------------------------
INTERNAL COORDINATES (ANGSTROEM)
--------------------------------
 H      0   0   0     0.000000000000     0.00000000     0.00000000
 H      1   0   0     2.418446926604     0.00000000     0.00000000

---------------------------
INTERNAL COORDINATES (A.U.)
---------------------------
 H      0   0   0     0.000000000000     0.00000000     0.00000000
 H      1   0   0     4.570202360705     0.00000000     0.00000000

---------------------
BASIS SET INFORMATION
---------------------
There are 1 groups of distinct atoms

 Group   1 Type H   : 4s contracted to 2s pattern {31}

Atom   0H    basis set group =>   1
Atom   1H    basis set group =>   1
------------------------------------------------------------------------------
                           ORCA GTO INTEGRAL CALCULATION
------------------------------------------------------------------------------

                         BASIS SET STATISTICS AND STARTUP INFO

 # of primitive gaussian shells          ...    8
 # of primitive gaussian functions       ...    8
 # of contracted shells                  ...    4
 # of contracted basis functions         ...    4
 Highest angular momentum                ...    0
 Maximum contraction depth               ...    3
 Integral package used                   ... LIBINT
 Integral threshhold            Thresh   ...  2.500e-11
 Primitive cut-off              TCut     ...  2.500e-12


------------------------------ INTEGRAL EVALUATION ----------------------------


 * One electron integrals 
 Pre-screening matrix                    ... done
 Shell pair data                         ... done (   0.001 sec)

-------------------------------------------------------------------------------
                                 ORCA SCF
-------------------------------------------------------------------------------

------------
SCF SETTINGS
------------
Hamiltonian:
 Density Functional     Method          .... DFT(GTOs)
 Exchange Functional    Exchange        .... B88
   X-Alpha parameter    XAlpha          ....  0.666667
   Becke's b parameter  XBeta           ....  0.004200
 Correlation Functional Correlation     .... LYP
 LDA part of GGA corr.  LDAOpt          .... VWN-5
 Gradients option       PostSCFGGA      .... off
 Hybrid DFT is turned on
   Fraction HF Exchange ScalHFX         ....  0.200000
   Scaling of DF-GGA-X  ScalDFX         ....  0.720000
   Scaling of DF-GGA-C  ScalDFC         ....  0.810000
   Scaling of DF-LDA-C  ScalLDAC        ....  1.000000
   Perturbative correction              ....  0.000000
   Density functional embedding theory  .... OFF
   NL short-range parameter             ....  4.800000


General Settings:
 Integral files         IntName         .... frequencyHydrogenDFT
 Hartree-Fock type      HFTyp           .... RHF
 Total Charge           Charge          ....    0
 Multiplicity           Mult            ....    1
 Number of Electrons    NEL             ....    2
 Basis Dimension        Dim             ....    4
 Nuclear Repulsion      ENuc            ....      0.2188086918 Eh

Convergence Acceleration:
 DIIS                   CNVDIIS         .... on
   Start iteration      DIISMaxIt       ....    12
   Startup error        DIISStart       ....  0.200000
   # of expansion vecs  DIISMaxEq       ....     5
   Bias factor          DIISBfac        ....   1.050
   Max. coefficient     DIISMaxC        ....  10.000
 Newton-Raphson         CNVNR           .... off
 SOSCF                  CNVSOSCF        .... on
   Start iteration      SOSCFMaxIt      ....   150
   Startup grad/error   SOSCFStart      ....  0.003300
 Level Shifting         CNVShift        .... on
   Level shift para.    LevelShift      ....    0.2500
   Turn off err/grad.   ShiftErr        ....    0.0010
 Zerner damping         CNVZerner       .... off
 Static damping         CNVDamp         .... on
   Fraction old density DampFac         ....    0.7000
   Max. Damping (<1)    DampMax         ....    0.9800
   Min. Damping (>=0)   DampMin         ....    0.0000
   Turn off err/grad.   DampErr         ....    0.1000
 Fernandez-Rico         CNVRico         .... off

SCF Procedure:
 Maximum # iterations   MaxIter         ....   125
 SCF integral mode      SCFMode         .... Direct
   Integral package                     .... LIBINT
 Reset frequency        DirectResetFreq ....    20
 Integral Threshold     Thresh          ....  2.500e-11 Eh
 Primitive CutOff       TCut            ....  2.500e-12 Eh

Convergence Tolerance:
 Convergence Check Mode ConvCheckMode   .... Total+1el-Energy
 Convergence forced     ConvForced      .... 0
 Energy Change          TolE            ....  1.000e-08 Eh
 1-El. energy change                    ....  1.000e-05 Eh
 Orbital Gradient       TolG            ....  1.000e-05
 Orbital Rotation angle TolX            ....  1.000e-05
 DIIS Error             TolErr          ....  5.000e-07


Diagonalization of the overlap matrix:
Smallest eigenvalue                        ... 2.843e-01
Time for diagonalization                   ...    0.001 sec
Threshold for overlap eigenvalues          ... 1.000e-08
Number of eigenvalues below threshold      ... 0
Time for construction of square roots      ...    0.000 sec
Total time needed                          ...    0.001 sec

-------------------
DFT GRID GENERATION
-------------------

General Integration Accuracy     IntAcc      ...  4.340
Radial Grid Type                 RadialGrid  ... Gauss-Chebyshev
Angular Grid (max. acc.)         AngularGrid ... Lebedev-110
Angular grid pruning method      GridPruning ... 3 (G Style)
Weight generation scheme         WeightScheme... Becke
Basis function cutoff            BFCut       ...    1.0000e-11
Integration weight cutoff        WCut        ...    1.0000e-14
Grids for H and He will be reduced by one unit

# of grid points (after initial pruning)     ...   1588 (   0.0 sec)
# of grid points (after weights+screening)   ...   1584 (   0.0 sec)
nearest neighbour list constructed           ...    0.0 sec
Grid point re-assignment to atoms done       ...    0.0 sec
Grid point division into batches done        ...    0.0 sec
Reduced shell lists constructed in    0.0 sec

Total number of grid points                  ...     1584
Total number of batches                      ...       26
Average number of points per batch           ...       60
Average number of grid points per atom       ...      792
Average number of shells per batch           ...     3.81 (95.37%)
Average number of basis functions per batch  ...     3.81 (95.37%)
Average number of large shells per batch     ...     3.59 (94.17%)
Average number of large basis fcns per batch ...     3.59 (94.17%)
Maximum spatial batch extension              ...  15.10, 21.59, 21.59 au
Average spatial batch extension              ...   5.51,  8.03,  7.92 au

Time for grid setup =    0.006 sec

------------------------------
INITIAL GUESS: MODEL POTENTIAL
------------------------------
Loading Hartree-Fock densities                     ... done
Calculating cut-offs                               ... done
Setting up the integral package                    ... done
Initializing the effective Hamiltonian             ... done
Starting the Coulomb interaction                   ... done (   0.0 sec)
Reading the grid                                   ... done
Mapping shells                                     ... done
Starting the XC term evaluation                    ... done (   0.0 sec)
  promolecular density results
     # of electrons  =      1.998337488
     EX              =     -0.517685049
     EC              =     -0.028530154
     EX+EC           =     -0.546215203
Transforming the Hamiltonian                       ... done (   0.0 sec)
Diagonalizing the Hamiltonian                      ... done (   0.0 sec)
Back transforming the eigenvectors                 ... done (   0.0 sec)
Now organizing SCF variables                       ... done
                      ------------------
                      INITIAL GUESS DONE (   0.1 sec)
                      ------------------
--------------
SCF ITERATIONS
--------------
ITER       Energy         Delta-E        Max-DP      RMS-DP      [F,P]     Damp
               ***  Starting incremental Fock matrix formation  ***
  0     -0.9522391277   0.000000000000 0.00257785  0.00128383  0.0067427 0.7000
                      *** Initiating the SOSCF procedure ***
                      *** Re-Reading the Fockian *** 
                      *** Removing any level shift *** 
ITER      Energy       Delta-E        Grad      Rot      Max-DP    RMS-DP
  1     -0.95227662  -0.0000374903  0.001530  0.001530  0.007646  0.003806
               *** Restarting incremental Fock matrix formation ***
  2     -0.95236459  -0.0000879749  0.000035  0.000035  0.000047  0.000023
                 **** Energy Check signals convergence ****
              ***Rediagonalizing the Fockian in SOSCF/NRSCF***

               *****************************************************
               *                     SUCCESS                       *
               *           SCF CONVERGED AFTER   3 CYCLES          *
               *****************************************************

Setting up the final grid:

General Integration Accuracy     IntAcc      ...  4.670
Radial Grid Type                 RadialGrid  ... Gauss-Chebyshev
Angular Grid (max. acc.)         AngularGrid ... Lebedev-302
Angular grid pruning method      GridPruning ... 3 (G Style)
Weight generation scheme         WeightScheme... Becke
Basis function cutoff            BFCut       ...    1.0000e-11
Integration weight cutoff        WCut        ...    1.0000e-14
Grids for H and He will be reduced by one unit

# of grid points (after initial pruning)     ...   6788 (   0.0 sec)
# of grid points (after weights+screening)   ...   6784 (   0.0 sec)
nearest neighbour list constructed           ...    0.0 sec
Grid point re-assignment to atoms done       ...    0.0 sec
Grid point division into batches done        ...    0.0 sec
Reduced shell lists constructed in    0.0 sec

Total number of grid points                  ...     6784
Total number of batches                      ...      108
Average number of points per batch           ...       62
Average number of grid points per atom       ...     3392
Average number of shells per batch           ...     3.72 (92.89%)
Average number of basis functions per batch  ...     3.72 (92.89%)
Average number of large shells per batch     ...     3.47 (93.33%)
Average number of large basis fcns per batch ...     3.47 (93.33%)
Maximum spatial batch extension              ...  13.75, 15.43, 17.51 au
Average spatial batch extension              ...   3.89,  4.09,  4.09 au

Final grid set up in    0.0 sec
Final integration                            ... done (   0.0 sec)
Change in XC energy                          ...    -0.000287215
Integrated number of electrons               ...     1.999997424
Previous integrated no of electrons          ...     1.999507866

----------------
TOTAL SCF ENERGY
----------------

Total Energy       :           -0.95265181 Eh             -25.92297 eV

Components:
Nuclear Repulsion  :            0.21880869 Eh               5.95409 eV
Electronic Energy  :           -1.17146050 Eh             -31.87706 eV
One Electron Energy:           -1.48667652 Eh             -40.45452 eV
Two Electron Energy:            0.31521602 Eh               8.57746 eV

Virial components:
Potential Energy   :           -1.77645551 Eh             -48.33981 eV
Kinetic Energy     :            0.82380370 Eh              22.41684 eV
Virial Ratio       :            2.15640633


DFT components:
N(Alpha)           :        0.999998711778 electrons
N(Beta)            :        0.999998711778 electrons
N(Total)           :        1.999997423557 electrons
E(X)               :       -0.379340319274 Eh       
E(C)               :       -0.038979030453 Eh       
E(XC)              :       -0.418319349727 Eh       
DFET-embed. en.    :        0.000000000000 Eh       

---------------
SCF CONVERGENCE
---------------

  Last Energy change         ...   -2.3810e-09  Tolerance :   1.0000e-08
  Last MAX-Density change    ...    2.0833e-06  Tolerance :   1.0000e-07
  Last RMS-Density change    ...    1.0346e-06  Tolerance :   5.0000e-09
  Last Orbital Gradient      ...    1.6332e-06  Tolerance :   1.0000e-05
  Last Orbital Rotation      ...    1.5692e-06  Tolerance :   1.0000e-05

             **** THE GBW FILE WAS UPDATED (frequencyHydrogenDFT.gbw) ****
             **** DENSITY FILE WAS UPDATED (frequencyHydrogenDFT.scfp) ****
             **** ENERGY FILE WAS UPDATED (frequencyHydrogenDFT.en.tmp) ****
             **** THE GBW FILE WAS UPDATED (frequencyHydrogenDFT.gbw) ****
             **** DENSITY FILE WAS UPDATED (frequencyHydrogenDFT.scfp) ****
----------------
ORBITAL ENERGIES
----------------

  NO   OCC          E(Eh)            E(eV) 
   0   2.0000      -0.275356        -7.4928 
   1   0.0000      -0.178254        -4.8505 
   2   0.0000       0.719204        19.5705 
   3   0.0000       0.822703        22.3869 

                    ********************************
                    * MULLIKEN POPULATION ANALYSIS *
                    ********************************

-----------------------
MULLIKEN ATOMIC CHARGES
-----------------------
   0 H :    0.000000
   1 H :   -0.000000
Sum of atomic charges:    0.0000000

--------------------------------
MULLIKEN REDUCED ORBITAL CHARGES
--------------------------------
  0 H s       :     1.000000  s :     1.000000
  1 H s       :     1.000000  s :     1.000000


                     *******************************
                     * LOEWDIN POPULATION ANALYSIS *
                     *******************************

----------------------
LOEWDIN ATOMIC CHARGES
----------------------
   0 H :    0.000000
   1 H :   -0.000000

-------------------------------
LOEWDIN REDUCED ORBITAL CHARGES
-------------------------------
  0 H s       :     1.000000  s :     1.000000
  1 H s       :     1.000000  s :     1.000000


                      *****************************
                      * MAYER POPULATION ANALYSIS *
                      *****************************

  NA   - Mulliken gross atomic population
  ZA   - Total nuclear charge
  QA   - Mulliken gross atomic charge
  VA   - Mayer's total valence
  BVA  - Mayer's bonded valence
  FA   - Mayer's free valence

  ATOM       NA         ZA         QA         VA         BVA        FA
  0 H      1.0000     1.0000     0.0000     1.0000     1.0000     0.0000
  1 H      1.0000     1.0000    -0.0000     1.0000     1.0000     0.0000

  Mayer bond orders larger than 0.100000
B(  0-H ,  1-H ) :   1.0000 

-------
TIMINGS
-------

Total SCF time: 0 days 0 hours 0 min 0 sec 

Total time                  ....       0.498 sec
Sum of individual times     ....       0.375 sec  ( 75.2%)

Fock matrix formation       ....       0.293 sec  ( 58.8%)
  XC integration            ....       0.011 sec  (  3.6% of F)
    Basis function eval.    ....       0.001 sec  ( 13.8% of XC)
    Density eval.           ....       0.002 sec  ( 21.7% of XC)
    XC-Functional eval.     ....       0.004 sec  ( 36.1% of XC)
    XC-Potential eval.      ....       0.000 sec  (  2.4% of XC)
Diagonalization             ....       0.000 sec  (  0.0%)
Density matrix formation    ....       0.000 sec  (  0.0%)
Population analysis         ....       0.001 sec  (  0.1%)
Initial guess               ....       0.059 sec  ( 11.8%)
Orbital Transformation      ....       0.000 sec  (  0.0%)
Orbital Orthonormalization  ....       0.000 sec  (  0.0%)
DIIS solution               ....       0.000 sec  (  0.0%)
SOSCF solution              ....       0.000 sec  (  0.1%)
Grid generation             ....       0.021 sec  (  4.3%)

-------------------------   --------------------
FINAL SINGLE POINT ENERGY        -0.952651810215
-------------------------   --------------------

------------------------------------------------------------------------------
                         ORCA SCF GRADIENT CALCULATION
------------------------------------------------------------------------------

Gradient of the Kohn-Sham DFT energy:
Kohn-Sham wavefunction type      ... RKS
Hartree-Fock exchange scaling    ...    0.200
Number of operators              ...    1
Number of atoms                  ...    2
Basis set dimensions             ...    4
Integral neglect threshold       ... 2.5e-11
Integral primitive cutoff        ... 2.5e-12

Nuclear repulsion gradient       ... done
One Electron Gradient            ... done
Pre-screening matrix             ... done
Starting the two electron gradient:
Two electron gradient done
Exchange-correlation gradient    ... done

------------------
CARTESIAN GRADIENT
------------------

   1   H   :   -0.037277234   -0.004677227   -0.000000000
   2   H   :    0.037277234    0.004677227    0.000000000

Difference to translation invariance:
           :   -0.0000000000    0.0000000000    0.0000000000

Norm of the cartesian gradient     ...    0.0531313211
RMS gradient                       ...    0.0216907710
MAX gradient                       ...    0.0372772341

-------
TIMINGS
-------

Total SCF gradient time            ...        0.079 sec

One electron gradient       ....       0.000 sec  (  0.5%)
Prescreening matrices       ....       0.000 sec  (  0.2%)
Two electron gradient       ....       0.001 sec  (  1.0%)
XC gradient                 ....       0.013 sec  ( 16.2%)
------------------------------------------------------------------------------
                         ORCA GEOMETRY RELAXATION STEP
------------------------------------------------------------------------------

Reading the OPT-File                    .... done
Getting information on internals        .... done
Copying old internal coords+grads       .... done
Making the new internal coordinates     .... (new redundants).... done
Validating the new internal coordinates .... (new redundants).... done
Calculating the B-matrix                .... done
Calculating the G,G- and P matrices     .... done
Transforming gradient to internals      .... done
Projecting the internal gradient        .... done
Number of atoms                         ....   2
Number of internal coordinates          ....   1
Current Energy                          ....    -0.952651810 Eh
Current gradient norm                   ....     0.053131321 Eh/bohr
Maximum allowed component of the step   ....  0.300
Current trust radius                    ....  0.300
Evaluating the initial hessian          ....  (Almloef) done
Projecting the Hessian                  .... done
Forming the augmented Hessian           .... done
Diagonalizing the augmented Hessian     .... done
Last element of RFO vector              ....  0.709566292
Lowest eigenvalues of augmented Hessian:
 -0.037308615
Length of the computed step             ....  0.993055467
Warning: the length of the step is outside the trust region - taking restricted step instead
The input lambda is                     ....    -0.037309
   iter:   1  x=   -0.054498  g=   52.133262 f(x)=     0.896159
   iter:   2  x=   -0.076699  g=   16.946952 f(x)=     0.376228
   iter:   3  x=   -0.100628  g=    6.130167 f(x)=     0.146693
   iter:   4  x=   -0.118208  g=    2.727580 f(x)=     0.047950
   iter:   5  x=   -0.124211  g=    1.686555 f(x)=     0.010124
   iter:   6  x=   -0.124705  g=    1.454596 f(x)=     0.000719
   iter:   7  x=   -0.124708  g=    1.437437 f(x)=     0.000004
   iter:   8  x=   -0.124708  g=    1.437335 f(x)=     0.000000
   iter:   9  x=   -0.124708  g=    1.437335 f(x)=     0.000000
The output lambda is                    ....    -0.124708 (9 iterations)
The final length of the internal step   ....  0.300000000
Converting the step to cartesian space:
 Initial RMS(Int)=    0.3000000000
Transforming coordinates:
 Iter   0:  RMS(Cart)=    0.0866025404 RMS(Int)=    0.3000000000
 Iter   1:  RMS(Cart)=    0.0000000000 RMS(Int)=    0.0000000000
done
Storing new coordinates                 .... done

                                .--------------------.
          ----------------------|Geometry convergence|-------------------------
          Item                value                   Tolerance       Converged
          ---------------------------------------------------------------------
          RMS gradient        0.0375695174            0.0001000000      NO
          MAX gradient        0.0375695174            0.0003000000      NO
          RMS step            0.3000000000            0.0020000000      NO
          MAX step            0.3000000000            0.0040000000      NO
          ........................................................
          Max(Bonds)      0.1588      Max(Angles)    0.00
          Max(Dihed)        0.00      Max(Improp)    0.00
          ---------------------------------------------------------------------

The optimization has not yet converged - more geometry cycles are needed


    ---------------------------------------------------------------------------
                         Redundant Internal Coordinates
                            (Angstroem and degrees)

        Definition                    Value    dE/dq     Step     New-Value
    ----------------------------------------------------------------------------
     1. B(H   1,H   0)                2.4184  0.037570 -0.1588    2.2597   
    ----------------------------------------------------------------------------

         *************************************************************
         *                GEOMETRY OPTIMIZATION CYCLE   2            *
         *************************************************************
---------------------------------
CARTESIAN COORDINATES (ANGSTROEM)
---------------------------------
  H     -5.740331    1.555895    0.000000
  H     -3.498229    1.837305   -0.000000

----------------------------
CARTESIAN COORDINATES (A.U.)
----------------------------
  NO LB      ZA    FRAG     MASS         X           Y           Z
   0 H     1.0000    0     1.008  -10.847654    2.940216    0.000000
   1 H     1.0000    0     1.008   -6.610694    3.472003   -0.000000

--------------------------------
INTERNAL COORDINATES (ANGSTROEM)
--------------------------------
 H      0   0   0     0.000000000000     0.00000000     0.00000000
 H      1   0   0     2.259693764114     0.00000000     0.00000000

---------------------------
INTERNAL COORDINATES (A.U.)
---------------------------
 H      0   0   0     0.000000000000     0.00000000     0.00000000
 H      1   0   0     4.270202360705     0.00000000     0.00000000


Diagonalization of the overlap matrix:
Smallest eigenvalue                        ... 2.754e-01
Time for diagonalization                   ...    0.000 sec
Threshold for overlap eigenvalues          ... 1.000e-08
Number of eigenvalues below threshold      ... 0
Time for construction of square roots      ...    0.000 sec
Total time needed                          ...    0.000 sec

-------------------
DFT GRID GENERATION
-------------------

General Integration Accuracy     IntAcc      ...  4.340
Radial Grid Type                 RadialGrid  ... Gauss-Chebyshev
Angular Grid (max. acc.)         AngularGrid ... Lebedev-110
Angular grid pruning method      GridPruning ... 3 (G Style)
Weight generation scheme         WeightScheme... Becke
Basis function cutoff            BFCut       ...    1.0000e-11
Integration weight cutoff        WCut        ...    1.0000e-14
Grids for H and He will be reduced by one unit

# of grid points (after initial pruning)     ...   1588 (   0.0 sec)
# of grid points (after weights+screening)   ...   1584 (   0.0 sec)
nearest neighbour list constructed           ...    0.0 sec
Grid point re-assignment to atoms done       ...    0.0 sec
Grid point division into batches done        ...    0.0 sec
Reduced shell lists constructed in    0.0 sec

Total number of grid points                  ...     1584
Total number of batches                      ...       26
Average number of points per batch           ...       60
Average number of grid points per atom       ...      792
Average number of shells per batch           ...     3.81 (95.37%)
Average number of basis functions per batch  ...     3.81 (95.37%)
Average number of large shells per batch     ...     3.70 (97.09%)
Average number of large basis fcns per batch ...     3.70 (97.09%)
Maximum spatial batch extension              ...  15.20, 21.59, 21.59 au
Average spatial batch extension              ...   5.52,  8.38,  8.26 au

Time for grid setup =    0.002 sec

--------------
SCF ITERATIONS
--------------
ITER       Energy         Delta-E        Max-DP      RMS-DP      [F,P]     Damp
               ***  Starting incremental Fock matrix formation  ***
  0     -0.9646114530   0.000000000000 0.00105346  0.00052848  0.0029120 0.7000
                      *** Initiating the SOSCF procedure ***
                      *** Re-Reading the Fockian *** 
                      *** Removing any level shift *** 
ITER      Energy       Delta-E        Grad      Rot      Max-DP    RMS-DP
  1     -0.96461814  -0.0000066826  0.000648  0.000648  0.003118  0.001565
               *** Restarting incremental Fock matrix formation ***
  2     -0.96463392  -0.0000157867  0.000029  0.000029  0.000037  0.000019
                 **** Energy Check signals convergence ****
              ***Rediagonalizing the Fockian in SOSCF/NRSCF***

               *****************************************************
               *                     SUCCESS                       *
               *           SCF CONVERGED AFTER   3 CYCLES          *
               *****************************************************

Setting up the final grid:

General Integration Accuracy     IntAcc      ...  4.670
Radial Grid Type                 RadialGrid  ... Gauss-Chebyshev
Angular Grid (max. acc.)         AngularGrid ... Lebedev-302
Angular grid pruning method      GridPruning ... 3 (G Style)
Weight generation scheme         WeightScheme... Becke
Basis function cutoff            BFCut       ...    1.0000e-11
Integration weight cutoff        WCut        ...    1.0000e-14
Grids for H and He will be reduced by one unit

# of grid points (after initial pruning)     ...   6788 (   0.0 sec)
# of grid points (after weights+screening)   ...   6784 (   0.0 sec)
nearest neighbour list constructed           ...    0.0 sec
Grid point re-assignment to atoms done       ...    0.0 sec
Grid point division into batches done        ...    0.0 sec
Reduced shell lists constructed in    0.0 sec

Total number of grid points                  ...     6784
Total number of batches                      ...      108
Average number of points per batch           ...       62
Average number of grid points per atom       ...     3392
Average number of shells per batch           ...     3.71 (92.66%)
Average number of basis functions per batch  ...     3.71 (92.66%)
Average number of large shells per batch     ...     3.53 (95.30%)
Average number of large basis fcns per batch ...     3.53 (95.30%)
Maximum spatial batch extension              ...  13.75, 15.43, 17.51 au
Average spatial batch extension              ...   3.82,  4.10,  4.09 au

Final grid set up in    0.0 sec
Final integration                            ... done (   0.0 sec)
Change in XC energy                          ...    -0.000213613
Integrated number of electrons               ...     1.999999446
Previous integrated no of electrons          ...     2.001076885
Total Energy       :           -0.96484754 Eh             -26.25484 eV
  Last Energy change         ...   -1.6373e-09  Tolerance :   1.0000e-08
  Last MAX-Density change    ...    1.4602e-06  Tolerance :   1.0000e-07
             **** THE GBW FILE WAS UPDATED (frequencyHydrogenDFT.gbw) ****
             **** DENSITY FILE WAS UPDATED (frequencyHydrogenDFT.scfp) ****
             **** ENERGY FILE WAS UPDATED (frequencyHydrogenDFT.en.tmp) ****
             **** THE GBW FILE WAS UPDATED (frequencyHydrogenDFT.gbw) ****
             **** DENSITY FILE WAS UPDATED (frequencyHydrogenDFT.scfp) ****
Total SCF time: 0 days 0 hours 0 min 0 sec 

-------------------------   --------------------
FINAL SINGLE POINT ENERGY        -0.964847536866
-------------------------   --------------------

------------------------------------------------------------------------------
                         ORCA SCF GRADIENT CALCULATION
------------------------------------------------------------------------------

Gradient of the Kohn-Sham DFT energy:
Kohn-Sham wavefunction type      ... RKS
Hartree-Fock exchange scaling    ...    0.200
Number of operators              ...    1
Number of atoms                  ...    2
Basis set dimensions             ...    4
Integral neglect threshold       ... 2.5e-11
Integral primitive cutoff        ... 2.5e-12

Nuclear repulsion gradient       ... done
One Electron Gradient            ... done
Pre-screening matrix             ... done
Starting the two electron gradient:
Two electron gradient done
Exchange-correlation gradient    ... done

------------------
CARTESIAN GRADIENT
------------------

   1   H   :   -0.043641692   -0.005473644   -0.000000000
   2   H   :    0.043641692    0.005473644    0.000000000

Difference to translation invariance:
           :   -0.0000000000    0.0000000000   -0.0000000000

Norm of the cartesian gradient     ...    0.0622022192
RMS gradient                       ...    0.0253939496
MAX gradient                       ...    0.0436416918

-------
TIMINGS
-------

Total SCF gradient time            ...        0.070 sec

One electron gradient       ....       0.000 sec  (  0.1%)
Prescreening matrices       ....       0.000 sec  (  0.0%)
Two electron gradient       ....       0.000 sec  (  0.1%)
XC gradient                 ....       0.012 sec  ( 17.3%)
------------------------------------------------------------------------------
                         ORCA GEOMETRY RELAXATION STEP
------------------------------------------------------------------------------

Reading the OPT-File                    .... done
Getting information on internals        .... done
Copying old internal coords+grads       .... done
Making the new internal coordinates     .... (new redundants).... done
Validating the new internal coordinates .... (new redundants).... done
Calculating the B-matrix                .... done
Calculating the G,G- and P matrices     .... done
Transforming gradient to internals      .... done
Projecting the internal gradient        .... done
Number of atoms                         ....   2
Number of internal coordinates          ....   1
Current Energy                          ....    -0.964847537 Eh
Current gradient norm                   ....     0.062202219 Eh/bohr
Maximum allowed component of the step   ....  0.300
Current trust radius                    ....  0.300
Updating the Hessian (BFGS)             .... done
Forming the augmented Hessian           .... done
Diagonalizing the augmented Hessian     .... done
Last element of RFO vector              ....  0.617991498
Lowest eigenvalues of augmented Hessian:
 -0.055954241
Length of the computed step             ....  1.272161159
Warning: the length of the step is outside the trust region - taking restricted step instead
The input lambda is                     ....    -0.055954
   iter:   1  x=   -0.072280  g=   93.619326 f(x)=     1.528394
   iter:   2  x=   -0.094662  g=   29.340655 f(x)=     0.656713
   iter:   3  x=   -0.122149  g=    9.831534 f(x)=     0.270237
   iter:   4  x=   -0.148732  g=    3.781250 f(x)=     0.100516
   iter:   5  x=   -0.164363  g=    1.873274 f(x)=     0.029282
   iter:   6  x=   -0.167859  g=    1.323612 f(x)=     0.004627
   iter:   7  x=   -0.167992  g=    1.231094 f(x)=     0.000164
   iter:   8  x=   -0.167992  g=    1.227735 f(x)=     0.000000
   iter:   9  x=   -0.167992  g=    1.227730 f(x)=     0.000000
   iter:  10  x=   -0.167992  g=    1.227730 f(x)=    -0.000000
The output lambda is                    ....    -0.167992 (10 iterations)
The final length of the internal step   ....  0.300000000
Converting the step to cartesian space:
 Initial RMS(Int)=    0.3000000000
Transforming coordinates:
 Iter   0:  RMS(Cart)=    0.0866025404 RMS(Int)=    0.3000000000
 Iter   1:  RMS(Cart)=    0.0000000000 RMS(Int)=    0.0000000000
done
Storing new coordinates                 .... done

                                .--------------------.
          ----------------------|Geometry convergence|-------------------------
          Item                value                   Tolerance       Converged
          ---------------------------------------------------------------------
          Energy change      -0.0121957267            0.0000050000      NO
          RMS gradient        0.0439836108            0.0001000000      NO
          MAX gradient        0.0439836108            0.0003000000      NO
          RMS step            0.3000000000            0.0020000000      NO
          MAX step            0.3000000000            0.0040000000      NO
          ........................................................
          Max(Bonds)      0.1588      Max(Angles)    0.00
          Max(Dihed)        0.00      Max(Improp)    0.00
          ---------------------------------------------------------------------

The optimization has not yet converged - more geometry cycles are needed


    ---------------------------------------------------------------------------
                         Redundant Internal Coordinates
                            (Angstroem and degrees)

        Definition                    Value    dE/dq     Step     New-Value
    ----------------------------------------------------------------------------
     1. B(H   1,H   0)                2.2597  0.043984 -0.1588    2.1009   
    ----------------------------------------------------------------------------

         *************************************************************
         *                GEOMETRY OPTIMIZATION CYCLE   3            *
         *************************************************************
---------------------------------
CARTESIAN COORDINATES (ANGSTROEM)
---------------------------------
  H     -5.661573    1.565780    0.000000
  H     -3.576987    1.827420   -0.000000

----------------------------
CARTESIAN COORDINATES (A.U.)
----------------------------
  NO LB      ZA    FRAG     MASS         X           Y           Z
   0 H     1.0000    0     1.008  -10.698822    2.958896    0.000000
   1 H     1.0000    0     1.008   -6.759526    3.453323   -0.000000

--------------------------------
INTERNAL COORDINATES (ANGSTROEM)
--------------------------------
 H      0   0   0     0.000000000000     0.00000000     0.00000000
 H      1   0   0     2.100940601624     0.00000000     0.00000000

---------------------------
INTERNAL COORDINATES (A.U.)
---------------------------
 H      0   0   0     0.000000000000     0.00000000     0.00000000
 H      1   0   0     3.970202360705     0.00000000     0.00000000


Diagonalization of the overlap matrix:
Smallest eigenvalue                        ... 2.663e-01
Time for diagonalization                   ...    0.000 sec
Threshold for overlap eigenvalues          ... 1.000e-08
Number of eigenvalues below threshold      ... 0
Time for construction of square roots      ...    0.000 sec
Total time needed                          ...    0.000 sec

-------------------
DFT GRID GENERATION
-------------------

General Integration Accuracy     IntAcc      ...  4.340
Radial Grid Type                 RadialGrid  ... Gauss-Chebyshev
Angular Grid (max. acc.)         AngularGrid ... Lebedev-110
Angular grid pruning method      GridPruning ... 3 (G Style)
Weight generation scheme         WeightScheme... Becke
Basis function cutoff            BFCut       ...    1.0000e-11
Integration weight cutoff        WCut        ...    1.0000e-14
Grids for H and He will be reduced by one unit

# of grid points (after initial pruning)     ...   1588 (   0.0 sec)
# of grid points (after weights+screening)   ...   1584 (   0.0 sec)
nearest neighbour list constructed           ...    0.0 sec
Grid point re-assignment to atoms done       ...    0.0 sec
Grid point division into batches done        ...    0.0 sec
Reduced shell lists constructed in    0.0 sec

Total number of grid points                  ...     1584
Total number of batches                      ...       26
Average number of points per batch           ...       60
Average number of grid points per atom       ...      792
Average number of shells per batch           ...     3.81 (95.37%)
Average number of basis functions per batch  ...     3.81 (95.37%)
Average number of large shells per batch     ...     3.74 (98.06%)
Average number of large basis fcns per batch ...     3.74 (98.06%)
Maximum spatial batch extension              ...  15.17, 21.59, 21.59 au
Average spatial batch extension              ...   5.45,  8.33,  8.16 au

Time for grid setup =    0.002 sec

--------------
SCF ITERATIONS
--------------
ITER       Energy         Delta-E        Max-DP      RMS-DP      [F,P]     Damp
               ***  Starting incremental Fock matrix formation  ***
  0     -0.9789452385   0.000000000000 0.00123473  0.00062683  0.0036381 0.7000
                      *** Initiating the SOSCF procedure ***
                      *** Re-Reading the Fockian *** 
                      *** Removing any level shift *** 
ITER      Energy       Delta-E        Grad      Rot      Max-DP    RMS-DP
  1     -0.97895517  -0.0000099291  0.000788  0.000788  0.003645  0.001851
               *** Restarting incremental Fock matrix formation ***
  2     -0.97897873  -0.0000235610  0.000050  0.000048  0.000060  0.000030
                 **** Energy Check signals convergence ****
              ***Rediagonalizing the Fockian in SOSCF/NRSCF***

               *****************************************************
               *                     SUCCESS                       *
               *           SCF CONVERGED AFTER   3 CYCLES          *
               *****************************************************

Setting up the final grid:

General Integration Accuracy     IntAcc      ...  4.670
Radial Grid Type                 RadialGrid  ... Gauss-Chebyshev
Angular Grid (max. acc.)         AngularGrid ... Lebedev-302
Angular grid pruning method      GridPruning ... 3 (G Style)
Weight generation scheme         WeightScheme... Becke
Basis function cutoff            BFCut       ...    1.0000e-11
Integration weight cutoff        WCut        ...    1.0000e-14
Grids for H and He will be reduced by one unit

# of grid points (after initial pruning)     ...   6788 (   0.0 sec)
# of grid points (after weights+screening)   ...   6782 (   0.0 sec)
nearest neighbour list constructed           ...    0.0 sec
Grid point re-assignment to atoms done       ...    0.0 sec
Grid point division into batches done        ...    0.0 sec
Reduced shell lists constructed in    0.0 sec

Total number of grid points                  ...     6782
Total number of batches                      ...      106
Average number of points per batch           ...       63
Average number of grid points per atom       ...     3391
Average number of shells per batch           ...     3.70 (92.52%)
Average number of basis functions per batch  ...     3.70 (92.52%)
Average number of large shells per batch     ...     3.56 (96.21%)
Average number of large basis fcns per batch ...     3.56 (96.21%)
Maximum spatial batch extension              ...  13.75, 15.43, 15.43 au
Average spatial batch extension              ...   3.76,  4.04,  3.84 au

Final grid set up in    0.0 sec
Final integration                            ... done (   0.0 sec)
Change in XC energy                          ...    -0.000119816
Integrated number of electrons               ...     2.000001700
Previous integrated no of electrons          ...     2.002368525
Total Energy       :           -0.97909855 Eh             -26.64263 eV
  Last Energy change         ...   -4.5647e-09  Tolerance :   1.0000e-08
  Last MAX-Density change    ...    1.9944e-06  Tolerance :   1.0000e-07
             **** THE GBW FILE WAS UPDATED (frequencyHydrogenDFT.gbw) ****
             **** DENSITY FILE WAS UPDATED (frequencyHydrogenDFT.scfp) ****
             **** ENERGY FILE WAS UPDATED (frequencyHydrogenDFT.en.tmp) ****
             **** THE GBW FILE WAS UPDATED (frequencyHydrogenDFT.gbw) ****
             **** DENSITY FILE WAS UPDATED (frequencyHydrogenDFT.scfp) ****
Total SCF time: 0 days 0 hours 0 min 0 sec 

-------------------------   --------------------
FINAL SINGLE POINT ENERGY        -0.979098548656
-------------------------   --------------------

------------------------------------------------------------------------------
                         ORCA SCF GRADIENT CALCULATION
------------------------------------------------------------------------------

Gradient of the Kohn-Sham DFT energy:
Kohn-Sham wavefunction type      ... RKS
Hartree-Fock exchange scaling    ...    0.200
Number of operators              ...    1
Number of atoms                  ...    2
Basis set dimensions             ...    4
Integral neglect threshold       ... 2.5e-11
Integral primitive cutoff        ... 2.5e-12

Nuclear repulsion gradient       ... done
One Electron Gradient            ... done
Pre-screening matrix             ... done
Starting the two electron gradient:
Two electron gradient done
Exchange-correlation gradient    ... done

------------------
CARTESIAN GRADIENT
------------------

   1   H   :   -0.050810796   -0.006372796    0.000000000
   2   H   :    0.050810796    0.006372796   -0.000000000

Difference to translation invariance:
           :   -0.0000000000    0.0000000000   -0.0000000000

Norm of the cartesian gradient     ...    0.0724202940
RMS gradient                       ...    0.0295654612
MAX gradient                       ...    0.0508107958

-------
TIMINGS
-------

Total SCF gradient time            ...        0.072 sec

One electron gradient       ....       0.000 sec  (  0.1%)
Prescreening matrices       ....       0.000 sec  (  0.0%)
Two electron gradient       ....       0.000 sec  (  0.1%)
XC gradient                 ....       0.011 sec  ( 15.7%)
------------------------------------------------------------------------------
                         ORCA GEOMETRY RELAXATION STEP
------------------------------------------------------------------------------

Reading the OPT-File                    .... done
Getting information on internals        .... done
Copying old internal coords+grads       .... done
Making the new internal coordinates     .... (new redundants).... done
Validating the new internal coordinates .... (new redundants).... done
Calculating the B-matrix                .... done
Calculating the G,G- and P matrices     .... done
Transforming gradient to internals      .... done
Projecting the internal gradient        .... done
Number of atoms                         ....   2
Number of internal coordinates          ....   1
Current Energy                          ....    -0.979098549 Eh
Current gradient norm                   ....     0.072420294 Eh/bohr
Maximum allowed component of the step   ....  0.300
Current trust radius                    ....  0.300
Updating the Hessian (BFGS)             .... done
Forming the augmented Hessian           .... done
Diagonalizing the augmented Hessian     .... done
Last element of RFO vector              ....  0.620921624
Lowest eigenvalues of augmented Hessian:
 -0.064647839
Length of the computed step             ....  1.262434136
Warning: the length of the step is outside the trust region - taking restricted step instead
The input lambda is                     ....    -0.064648
   iter:   1  x=   -0.083784  g=   78.579797 f(x)=     1.503740
   iter:   2  x=   -0.109983  g=   24.648807 f(x)=     0.645768
   iter:   3  x=   -0.142056  g=    8.274827 f(x)=     0.265399
   iter:   4  x=   -0.172867  g=    3.194369 f(x)=     0.098423
   iter:   5  x=   -0.190741  g=    1.592423 f(x)=     0.028463
   iter:   6  x=   -0.194638  g=    1.133048 f(x)=     0.004415
   iter:   7  x=   -0.194780  g=    1.057145 f(x)=     0.000150
   iter:   8  x=   -0.194781  g=    1.054508 f(x)=     0.000000
   iter:   9  x=   -0.194781  g=    1.054505 f(x)=     0.000000
   iter:  10  x=   -0.194781  g=    1.054505 f(x)=     0.000000
The output lambda is                    ....    -0.194781 (10 iterations)
The final length of the internal step   ....  0.300000000
Converting the step to cartesian space:
 Initial RMS(Int)=    0.3000000000
Transforming coordinates:
 Iter   0:  RMS(Cart)=    0.0866025404 RMS(Int)=    0.3000000000
 Iter   1:  RMS(Cart)=    0.0000000000 RMS(Int)=    0.0000000000
done
Storing new coordinates                 .... done

                                .--------------------.
          ----------------------|Geometry convergence|-------------------------
          Item                value                   Tolerance       Converged
          ---------------------------------------------------------------------
          Energy change      -0.0142510118            0.0000050000      NO
          RMS gradient        0.0512088808            0.0001000000      NO
          MAX gradient        0.0512088808            0.0003000000      NO
          RMS step            0.3000000000            0.0020000000      NO
          MAX step            0.3000000000            0.0040000000      NO
          ........................................................
          Max(Bonds)      0.1588      Max(Angles)    0.00
          Max(Dihed)        0.00      Max(Improp)    0.00
          ---------------------------------------------------------------------

The optimization has not yet converged - more geometry cycles are needed


    ---------------------------------------------------------------------------
                         Redundant Internal Coordinates
                            (Angstroem and degrees)

        Definition                    Value    dE/dq     Step     New-Value
    ----------------------------------------------------------------------------
     1. B(H   1,H   0)                2.1009  0.051209 -0.1588    1.9422   
    ----------------------------------------------------------------------------

         *************************************************************
         *                GEOMETRY OPTIMIZATION CYCLE   4            *
         *************************************************************
---------------------------------
CARTESIAN COORDINATES (ANGSTROEM)
---------------------------------
  H     -5.582814    1.575665    0.000000
  H     -3.655746    1.817535   -0.000000

----------------------------
CARTESIAN COORDINATES (A.U.)
----------------------------
  NO LB      ZA    FRAG     MASS         X           Y           Z
   0 H     1.0000    0     1.008  -10.549990    2.977576    0.000000
   1 H     1.0000    0     1.008   -6.908359    3.434643   -0.000000

--------------------------------
INTERNAL COORDINATES (ANGSTROEM)
--------------------------------
 H      0   0   0     0.000000000000     0.00000000     0.00000000
 H      1   0   0     1.942187439134     0.00000000     0.00000000

---------------------------
INTERNAL COORDINATES (A.U.)
---------------------------
 H      0   0   0     0.000000000000     0.00000000     0.00000000
 H      1   0   0     3.670202360705     0.00000000     0.00000000


Diagonalization of the overlap matrix:
Smallest eigenvalue                        ... 2.567e-01
Time for diagonalization                   ...    0.000 sec
Threshold for overlap eigenvalues          ... 1.000e-08
Number of eigenvalues below threshold      ... 0
Time for construction of square roots      ...    0.000 sec
Total time needed                          ...    0.000 sec

-------------------
DFT GRID GENERATION
-------------------

General Integration Accuracy     IntAcc      ...  4.340
Radial Grid Type                 RadialGrid  ... Gauss-Chebyshev
Angular Grid (max. acc.)         AngularGrid ... Lebedev-110
Angular grid pruning method      GridPruning ... 3 (G Style)
Weight generation scheme         WeightScheme... Becke
Basis function cutoff            BFCut       ...    1.0000e-11
Integration weight cutoff        WCut        ...    1.0000e-14
Grids for H and He will be reduced by one unit

# of grid points (after initial pruning)     ...   1588 (   0.0 sec)
# of grid points (after weights+screening)   ...   1582 (   0.0 sec)
nearest neighbour list constructed           ...    0.0 sec
Grid point re-assignment to atoms done       ...    0.0 sec
Grid point division into batches done        ...    0.0 sec
Reduced shell lists constructed in    0.0 sec

Total number of grid points                  ...     1582
Total number of batches                      ...       26
Average number of points per batch           ...       60
Average number of grid points per atom       ...      791
Average number of shells per batch           ...     3.81 (95.37%)
Average number of basis functions per batch  ...     3.81 (95.37%)
Average number of large shells per batch     ...     3.81 (100.00%)
Average number of large basis fcns per batch ...     3.81 (100.00%)
Maximum spatial batch extension              ...  15.10, 21.59, 21.59 au
Average spatial batch extension              ...   6.27,  8.09,  7.72 au

Time for grid setup =    0.002 sec

--------------
SCF ITERATIONS
--------------
ITER       Energy         Delta-E        Max-DP      RMS-DP      [F,P]     Damp
               ***  Starting incremental Fock matrix formation  ***
  0     -0.9955943020   0.000000000000 0.00151142  0.00077700  0.0047538 0.7000
                      *** Initiating the SOSCF procedure ***
                      *** Re-Reading the Fockian *** 
                      *** Removing any level shift *** 
ITER      Energy       Delta-E        Grad      Rot      Max-DP    RMS-DP
  1     -0.99561041  -0.0000161077  0.001000  0.001000  0.004446  0.002286
               *** Restarting incremental Fock matrix formation ***
  2     -0.99564876  -0.0000383541  0.000077  0.000072  0.000087  0.000045
                  ***Gradient check signals convergence***
              ***Rediagonalizing the Fockian in SOSCF/NRSCF***

               *****************************************************
               *                     SUCCESS                       *
               *           SCF CONVERGED AFTER   3 CYCLES          *
               *****************************************************

Setting up the final grid:

General Integration Accuracy     IntAcc      ...  4.670
Radial Grid Type                 RadialGrid  ... Gauss-Chebyshev
Angular Grid (max. acc.)         AngularGrid ... Lebedev-302
Angular grid pruning method      GridPruning ... 3 (G Style)
Weight generation scheme         WeightScheme... Becke
Basis function cutoff            BFCut       ...    1.0000e-11
Integration weight cutoff        WCut        ...    1.0000e-14
Grids for H and He will be reduced by one unit

# of grid points (after initial pruning)     ...   6788 (   0.0 sec)
# of grid points (after weights+screening)   ...   6782 (   0.0 sec)
nearest neighbour list constructed           ...    0.0 sec
Grid point re-assignment to atoms done       ...    0.0 sec
Grid point division into batches done        ...    0.0 sec
Reduced shell lists constructed in    0.0 sec

Total number of grid points                  ...     6782
Total number of batches                      ...      106
Average number of points per batch           ...       63
Average number of grid points per atom       ...     3391
Average number of shells per batch           ...     3.71 (92.76%)
Average number of basis functions per batch  ...     3.71 (92.76%)
Average number of large shells per batch     ...     3.57 (96.22%)
Average number of large basis fcns per batch ...     3.57 (96.22%)
Maximum spatial batch extension              ...  13.75, 15.43, 15.43 au
Average spatial batch extension              ...   3.63,  4.02,  3.84 au

Final grid set up in    0.0 sec
Final integration                            ... done (   0.0 sec)
Change in XC energy                          ...    -0.000000470
Integrated number of electrons               ...     2.000002654
Previous integrated no of electrons          ...     2.003144943
Total Energy       :           -0.99564924 Eh             -27.09299 eV
  Last Energy change         ...   -1.0802e-08  Tolerance :   1.0000e-08
  Last MAX-Density change    ...    2.4968e-06  Tolerance :   1.0000e-07
             **** THE GBW FILE WAS UPDATED (frequencyHydrogenDFT.gbw) ****
             **** DENSITY FILE WAS UPDATED (frequencyHydrogenDFT.scfp) ****
             **** ENERGY FILE WAS UPDATED (frequencyHydrogenDFT.en.tmp) ****
             **** THE GBW FILE WAS UPDATED (frequencyHydrogenDFT.gbw) ****
             **** DENSITY FILE WAS UPDATED (frequencyHydrogenDFT.scfp) ****
Total SCF time: 0 days 0 hours 0 min 0 sec 

-------------------------   --------------------
FINAL SINGLE POINT ENERGY        -0.995649244625
-------------------------   --------------------

------------------------------------------------------------------------------
                         ORCA SCF GRADIENT CALCULATION
------------------------------------------------------------------------------

Gradient of the Kohn-Sham DFT energy:
Kohn-Sham wavefunction type      ... RKS
Hartree-Fock exchange scaling    ...    0.200
Number of operators              ...    1
Number of atoms                  ...    2
Basis set dimensions             ...    4
Integral neglect threshold       ... 2.5e-11
Integral primitive cutoff        ... 2.5e-12

Nuclear repulsion gradient       ... done
One Electron Gradient            ... done
Pre-screening matrix             ... done
Starting the two electron gradient:
Two electron gradient done
Exchange-correlation gradient    ... done

------------------
CARTESIAN GRADIENT
------------------

   1   H   :   -0.058724797   -0.007368345    0.000000000
   2   H   :    0.058724797    0.007368345   -0.000000000

Difference to translation invariance:
           :   -0.0000000000    0.0000000000   -0.0000000000

Norm of the cartesian gradient     ...    0.0837005883
RMS gradient                       ...    0.0341706221
MAX gradient                       ...    0.0587247966

-------
TIMINGS
-------

Total SCF gradient time            ...        0.072 sec

One electron gradient       ....       0.000 sec  (  0.1%)
Prescreening matrices       ....       0.000 sec  (  0.0%)
Two electron gradient       ....       0.000 sec  (  0.1%)
XC gradient                 ....       0.011 sec  ( 15.6%)
------------------------------------------------------------------------------
                         ORCA GEOMETRY RELAXATION STEP
------------------------------------------------------------------------------

Reading the OPT-File                    .... done
Getting information on internals        .... done
Copying old internal coords+grads       .... done
Making the new internal coordinates     .... (new redundants).... done
Validating the new internal coordinates .... (new redundants).... done
Calculating the B-matrix                .... done
Calculating the G,G- and P matrices     .... done
Transforming gradient to internals      .... done
Projecting the internal gradient        .... done
Number of atoms                         ....   2
Number of internal coordinates          ....   1
Current Energy                          ....    -0.995649245 Eh
Current gradient norm                   ....     0.083700588 Eh/bohr
Maximum allowed component of the step   ....  0.300
Current trust radius                    ....  0.300
Updating the Hessian (BFGS)             .... done
Forming the augmented Hessian           .... done
Diagonalizing the augmented Hessian     .... done
Last element of RFO vector              ....  0.624837753
Lowest eigenvalues of augmented Hessian:
 -0.073953855
Length of the computed step             ....  1.249531769
Warning: the length of the step is outside the trust region - taking restricted step instead
The input lambda is                     ....    -0.073954
   iter:   1  x=   -0.096272  g=   65.926253 f(x)=     1.471330
   iter:   2  x=   -0.126767  g=   20.704386 f(x)=     0.631380
   iter:   3  x=   -0.163940  g=    6.968358 f(x)=     0.259041
   iter:   4  x=   -0.199328  g=    2.703626 f(x)=     0.095675
   iter:   5  x=   -0.219482  g=    1.359179 f(x)=     0.027392
   iter:   6  x=   -0.223727  g=    0.976116 f(x)=     0.004143
   iter:   7  x=   -0.223872  g=    0.914411 f(x)=     0.000133
   iter:   8  x=   -0.223872  g=    0.912392 f(x)=     0.000000
   iter:   9  x=   -0.223872  g=    0.912389 f(x)=     0.000000
   iter:  10  x=   -0.223872  g=    0.912389 f(x)=     0.000000
The output lambda is                    ....    -0.223872 (10 iterations)
The final length of the internal step   ....  0.300000000
Converting the step to cartesian space:
 Initial RMS(Int)=    0.3000000000
Transforming coordinates:
 Iter   0:  RMS(Cart)=    0.0866025404 RMS(Int)=    0.3000000000
 Iter   1:  RMS(Cart)=    0.0000000000 RMS(Int)=    0.0000000000
done
Storing new coordinates                 .... done

                                .--------------------.
          ----------------------|Geometry convergence|-------------------------
          Item                value                   Tolerance       Converged
          ---------------------------------------------------------------------
          Energy change      -0.0165506960            0.0000050000      NO
          RMS gradient        0.0591852536            0.0001000000      NO
          MAX gradient        0.0591852536            0.0003000000      NO
          RMS step            0.3000000000            0.0020000000      NO
          MAX step            0.3000000000            0.0040000000      NO
          ........................................................
          Max(Bonds)      0.1588      Max(Angles)    0.00
          Max(Dihed)        0.00      Max(Improp)    0.00
          ---------------------------------------------------------------------

The optimization has not yet converged - more geometry cycles are needed


    ---------------------------------------------------------------------------
                         Redundant Internal Coordinates
                            (Angstroem and degrees)

        Definition                    Value    dE/dq     Step     New-Value
    ----------------------------------------------------------------------------
     1. B(H   1,H   0)                1.9422  0.059185 -0.1588    1.7834   
    ----------------------------------------------------------------------------

         *************************************************************
         *                GEOMETRY OPTIMIZATION CYCLE   5            *
         *************************************************************
---------------------------------
CARTESIAN COORDINATES (ANGSTROEM)
---------------------------------
  H     -5.504055    1.585550    0.000000
  H     -3.734505    1.807650   -0.000000

----------------------------
CARTESIAN COORDINATES (A.U.)
----------------------------
  NO LB      ZA    FRAG     MASS         X           Y           Z
   0 H     1.0000    0     1.008  -10.401157    2.996256    0.000000
   1 H     1.0000    0     1.008   -7.057191    3.415963   -0.000000

--------------------------------
INTERNAL COORDINATES (ANGSTROEM)
--------------------------------
 H      0   0   0     0.000000000000     0.00000000     0.00000000
 H      1   0   0     1.783434276644     0.00000000     0.00000000

---------------------------
INTERNAL COORDINATES (A.U.)
---------------------------
 H      0   0   0     0.000000000000     0.00000000     0.00000000
 H      1   0   0     3.370202360705     0.00000000     0.00000000


Diagonalization of the overlap matrix:
Smallest eigenvalue                        ... 2.463e-01
Time for diagonalization                   ...    0.000 sec
Threshold for overlap eigenvalues          ... 1.000e-08
Number of eigenvalues below threshold      ... 0
Time for construction of square roots      ...    0.000 sec
Total time needed                          ...    0.000 sec

-------------------
DFT GRID GENERATION
-------------------

General Integration Accuracy     IntAcc      ...  4.340
Radial Grid Type                 RadialGrid  ... Gauss-Chebyshev
Angular Grid (max. acc.)         AngularGrid ... Lebedev-110
Angular grid pruning method      GridPruning ... 3 (G Style)
Weight generation scheme         WeightScheme... Becke
Basis function cutoff            BFCut       ...    1.0000e-11
Integration weight cutoff        WCut        ...    1.0000e-14
Grids for H and He will be reduced by one unit

# of grid points (after initial pruning)     ...   1588 (   0.0 sec)
# of grid points (after weights+screening)   ...   1582 (   0.0 sec)
nearest neighbour list constructed           ...    0.0 sec
Grid point re-assignment to atoms done       ...    0.0 sec
Grid point division into batches done        ...    0.0 sec
Reduced shell lists constructed in    0.0 sec

Total number of grid points                  ...     1582
Total number of batches                      ...       26
Average number of points per batch           ...       60
Average number of grid points per atom       ...      791
Average number of shells per batch           ...     3.85 (96.30%)
Average number of basis functions per batch  ...     3.85 (96.30%)
Average number of large shells per batch     ...     3.81 (99.04%)
Average number of large basis fcns per batch ...     3.81 (99.04%)
Maximum spatial batch extension              ...  15.26, 21.59, 21.59 au
Average spatial batch extension              ...   6.33,  7.94,  7.68 au

Time for grid setup =    0.002 sec

--------------
SCF ITERATIONS
--------------
ITER       Energy         Delta-E        Max-DP      RMS-DP      [F,P]     Damp
               ***  Starting incremental Fock matrix formation  ***
  0     -1.0148030370   0.000000000000 0.00196932  0.00102580  0.0066120 0.7000
                      *** Initiating the SOSCF procedure ***
                      *** Re-Reading the Fockian *** 
                      *** Removing any level shift *** 
ITER      Energy       Delta-E        Grad      Rot      Max-DP    RMS-DP
  1     -1.01483262  -0.0000295850  0.001346  0.001346  0.005768  0.003006
               *** Restarting incremental Fock matrix formation ***
  2     -1.01490314  -0.0000705211  0.000111  0.000101  0.000119  0.000062
  3     -1.01490316  -0.0000000219  0.000003  0.000003  0.000003  0.000002
                 **** Energy Check signals convergence ****
              ***Rediagonalizing the Fockian in SOSCF/NRSCF***

               *****************************************************
               *                     SUCCESS                       *
               *           SCF CONVERGED AFTER   4 CYCLES          *
               *****************************************************

Setting up the final grid:

General Integration Accuracy     IntAcc      ...  4.670
Radial Grid Type                 RadialGrid  ... Gauss-Chebyshev
Angular Grid (max. acc.)         AngularGrid ... Lebedev-302
Angular grid pruning method      GridPruning ... 3 (G Style)
Weight generation scheme         WeightScheme... Becke
Basis function cutoff            BFCut       ...    1.0000e-11
Integration weight cutoff        WCut        ...    1.0000e-14
Grids for H and He will be reduced by one unit

# of grid points (after initial pruning)     ...   6788 (   0.0 sec)
# of grid points (after weights+screening)   ...   6780 (   0.0 sec)
nearest neighbour list constructed           ...    0.0 sec
Grid point re-assignment to atoms done       ...    0.0 sec
Grid point division into batches done        ...    0.0 sec
Reduced shell lists constructed in    0.0 sec

Total number of grid points                  ...     6780
Total number of batches                      ...      106
Average number of points per batch           ...       63
Average number of grid points per atom       ...     3390
Average number of shells per batch           ...     3.71 (92.76%)
Average number of basis functions per batch  ...     3.71 (92.76%)
Average number of large shells per batch     ...     3.60 (96.98%)
Average number of large basis fcns per batch ...     3.60 (96.98%)
Maximum spatial batch extension              ...  15.98, 15.85, 15.43 au
Average spatial batch extension              ...   3.58,  3.93,  3.74 au

Final grid set up in    0.0 sec
Final integration                            ... done (   0.0 sec)
Change in XC energy                          ...     0.000191988
Integrated number of electrons               ...     2.000001937
Previous integrated no of electrons          ...     2.003347635
Total Energy       :           -1.01471118 Eh             -27.61169 eV
  Last Energy change         ...   -1.5346e-11  Tolerance :   1.0000e-08
  Last MAX-Density change    ...    0.0000e+00  Tolerance :   1.0000e-07
             **** THE GBW FILE WAS UPDATED (frequencyHydrogenDFT.gbw) ****
             **** DENSITY FILE WAS UPDATED (frequencyHydrogenDFT.scfp) ****
             **** ENERGY FILE WAS UPDATED (frequencyHydrogenDFT.en.tmp) ****
             **** THE GBW FILE WAS UPDATED (frequencyHydrogenDFT.gbw) ****
             **** DENSITY FILE WAS UPDATED (frequencyHydrogenDFT.scfp) ****
Total SCF time: 0 days 0 hours 0 min 0 sec 

-------------------------   --------------------
FINAL SINGLE POINT ENERGY        -1.014711176915
-------------------------   --------------------

------------------------------------------------------------------------------
                         ORCA SCF GRADIENT CALCULATION
------------------------------------------------------------------------------

Gradient of the Kohn-Sham DFT energy:
Kohn-Sham wavefunction type      ... RKS
Hartree-Fock exchange scaling    ...    0.200
Number of operators              ...    1
Number of atoms                  ...    2
Basis set dimensions             ...    4
Integral neglect threshold       ... 2.5e-11
Integral primitive cutoff        ... 2.5e-12

Nuclear repulsion gradient       ... done
One Electron Gradient            ... done
Pre-screening matrix             ... done
Starting the two electron gradient:
Two electron gradient done
Exchange-correlation gradient    ... done

------------------
CARTESIAN GRADIENT
------------------

   1   H   :   -0.067209614   -0.008437024   -0.000000000
   2   H   :    0.067209614    0.008437024    0.000000000

Difference to translation invariance:
           :   -0.0000000000    0.0000000000    0.0000000000

Norm of the cartesian gradient     ...    0.0957947346
RMS gradient                       ...    0.0391080366
MAX gradient                       ...    0.0672096140

-------
TIMINGS
-------

Total SCF gradient time            ...        0.072 sec

One electron gradient       ....       0.000 sec  (  0.1%)
Prescreening matrices       ....       0.000 sec  (  0.0%)
Two electron gradient       ....       0.000 sec  (  0.1%)
XC gradient                 ....       0.011 sec  ( 15.7%)
------------------------------------------------------------------------------
                         ORCA GEOMETRY RELAXATION STEP
------------------------------------------------------------------------------

Reading the OPT-File                    .... done
Getting information on internals        .... done
Copying old internal coords+grads       .... done
Making the new internal coordinates     .... (new redundants).... done
Validating the new internal coordinates .... (new redundants).... done
Calculating the B-matrix                .... done
Calculating the G,G- and P matrices     .... done
Transforming gradient to internals      .... done
Projecting the internal gradient        .... done
Number of atoms                         ....   2
Number of internal coordinates          ....   1
Current Energy                          ....    -1.014711177 Eh
Current gradient norm                   ....     0.095794735 Eh/bohr
Maximum allowed component of the step   ....  0.300
Current trust radius                    ....  0.300
Updating the Hessian (BFGS)             .... done
Forming the augmented Hessian           .... done
Diagonalizing the augmented Hessian     .... done
Last element of RFO vector              ....  0.630115573
Lowest eigenvalues of augmented Hessian:
 -0.083473505
Length of the computed step             ....  1.232315778
Warning: the length of the step is outside the trust region - taking restricted step instead
The input lambda is                     ....    -0.083474
   iter:   1  x=   -0.109328  g=   55.254720 f(x)=     1.428602
   iter:   2  x=   -0.144562  g=   17.381678 f(x)=     0.612413
   iter:   3  x=   -0.187259  g=    5.870665 f(x)=     0.250661
   iter:   4  x=   -0.227396  g=    2.293615 f(x)=     0.092059
   iter:   5  x=   -0.249680  g=    1.166399 f(x)=     0.025992
   iter:   6  x=   -0.254156  g=    0.848169 f(x)=     0.003796
   iter:   7  x=   -0.254296  g=    0.798691 f(x)=     0.000112
   iter:   8  x=   -0.254297  g=    0.797201 f(x)=     0.000000
   iter:   9  x=   -0.254297  g=    0.797200 f(x)=     0.000000
   iter:  10  x=   -0.254297  g=    0.797200 f(x)=     0.000000
The output lambda is                    ....    -0.254297 (10 iterations)
The final length of the internal step   ....  0.300000000
Converting the step to cartesian space:
 Initial RMS(Int)=    0.3000000000
Transforming coordinates:
 Iter   0:  RMS(Cart)=    0.0866025404 RMS(Int)=    0.3000000000
 Iter   1:  RMS(Cart)=    0.0000000000 RMS(Int)=    0.0000000000
done
Storing new coordinates                 .... done

                                .--------------------.
          ----------------------|Geometry convergence|-------------------------
[...]
               ***  Starting incremental Fock matrix formation  ***
                      *** Initiating the SOSCF procedure ***
                      *** Re-Reading the Fockian *** 
                      *** Removing any level shift *** 
ITER      Energy       Delta-E        Grad      Rot      Max-DP    RMS-DP
  0     -1.16857658  -1.1685765799  0.000067  0.000067  0.000054  0.000026
               *** Restarting incremental Fock matrix formation ***
                 **** Energy Check signals convergence ****
              ***Rediagonalizing the Fockian in SOSCF/NRSCF***

               *****************************************************
               *                     SUCCESS                       *
               *           SCF CONVERGED AFTER   1 CYCLES          *
               *****************************************************

Setting up the final grid:

General Integration Accuracy     IntAcc      ...  4.670
Radial Grid Type                 RadialGrid  ... Gauss-Chebyshev
Angular Grid (max. acc.)         AngularGrid ... Lebedev-302
Angular grid pruning method      GridPruning ... 3 (G Style)
Weight generation scheme         WeightScheme... Becke
Basis function cutoff            BFCut       ...    1.0000e-11
Integration weight cutoff        WCut        ...    1.0000e-14
Grids for H and He will be reduced by one unit

# of grid points (after initial pruning)     ...   6788 (   0.0 sec)
# of grid points (after weights+screening)   ...   6768 (   0.0 sec)
nearest neighbour list constructed           ...    0.0 sec
Grid point re-assignment to atoms done       ...    0.0 sec
Grid point division into batches done        ...    0.0 sec
Reduced shell lists constructed in    0.0 sec

Total number of grid points                  ...     6768
Total number of batches                      ...      106
Average number of points per batch           ...       63
Average number of grid points per atom       ...     3384
Average number of shells per batch           ...     3.71 (92.76%)
Average number of basis functions per batch  ...     3.71 (92.76%)
Average number of large shells per batch     ...     3.65 (98.49%)
Average number of large basis fcns per batch ...     3.65 (98.49%)
Maximum spatial batch extension              ...  13.36, 15.60, 15.43 au
Average spatial batch extension              ...   3.32,  3.78,  3.68 au

Final grid set up in    0.0 sec
Final integration                            ... done (   0.0 sec)
Change in XC energy                          ...    -0.000139842
Integrated number of electrons               ...     2.000000116
Previous integrated no of electrons          ...     1.999601111

----------------
TOTAL SCF ENERGY
----------------

Total Energy       :           -1.16871643 Eh             -31.80239 eV

Components:
Nuclear Repulsion  :            0.71223811 Eh              19.38098 eV
Electronic Energy  :           -1.88095454 Eh             -51.18338 eV
One Electron Energy:           -2.49320882 Eh             -67.84366 eV
Two Electron Energy:            0.61225428 Eh              16.66029 eV

Virial components:
Potential Energy   :           -2.31144337 Eh             -62.89757 eV
Kinetic Energy     :            1.14272694 Eh              31.09518 eV
Virial Ratio       :            2.02274339


DFT components:
N(Alpha)           :        1.000000057834 electrons
N(Beta)            :        1.000000057834 electrons
N(Total)           :        2.000000115667 electrons
E(X)               :       -0.516858190254 Eh       
E(C)               :       -0.048825742822 Eh       
E(XC)              :       -0.565683933075 Eh       
DFET-embed. en.    :        0.000000000000 Eh       

---------------
SCF CONVERGENCE
---------------

  Last Energy change         ...   -7.5234e-09  Tolerance :   1.0000e-08
  Last MAX-Density change    ...    4.6051e-06  Tolerance :   1.0000e-07
  Last RMS-Density change    ...    2.2031e-06  Tolerance :   5.0000e-09
  Last Orbital Gradient      ...    4.5936e-06  Tolerance :   1.0000e-05
  Last Orbital Rotation      ...    4.5257e-06  Tolerance :   1.0000e-05

             **** THE GBW FILE WAS UPDATED (frequencyHydrogenDFT.gbw) ****
             **** DENSITY FILE WAS UPDATED (frequencyHydrogenDFT.scfp) ****
             **** ENERGY FILE WAS UPDATED (frequencyHydrogenDFT.en.tmp) ****
             **** THE GBW FILE WAS UPDATED (frequencyHydrogenDFT.gbw) ****
             **** DENSITY FILE WAS UPDATED (frequencyHydrogenDFT.scfp) ****
----------------
ORBITAL ENERGIES
----------------

  NO   OCC          E(Eh)            E(eV) 
   0   2.0000      -0.430343       -11.7102 
   1   0.0000       0.103715         2.8222 
   2   0.0000       0.584669        15.9097 
   3   0.0000       1.110828        30.2272 

                    ********************************
                    * MULLIKEN POPULATION ANALYSIS *
                    ********************************

-----------------------
MULLIKEN ATOMIC CHARGES
-----------------------
   0 H :    0.000000
   1 H :   -0.000000
Sum of atomic charges:   -0.0000000

--------------------------------
MULLIKEN REDUCED ORBITAL CHARGES
--------------------------------
  0 H s       :     1.000000  s :     1.000000
  1 H s       :     1.000000  s :     1.000000


                     *******************************
                     * LOEWDIN POPULATION ANALYSIS *
                     *******************************

----------------------
LOEWDIN ATOMIC CHARGES
----------------------
   0 H :   -0.000000
   1 H :   -0.000000

-------------------------------
LOEWDIN REDUCED ORBITAL CHARGES
-------------------------------
  0 H s       :     1.000000  s :     1.000000
  1 H s       :     1.000000  s :     1.000000


                      *****************************
                      * MAYER POPULATION ANALYSIS *
                      *****************************

  NA   - Mulliken gross atomic population
  ZA   - Total nuclear charge
  QA   - Mulliken gross atomic charge
  VA   - Mayer's total valence
  BVA  - Mayer's bonded valence
  FA   - Mayer's free valence

  ATOM       NA         ZA         QA         VA         BVA        FA
  0 H      1.0000     1.0000     0.0000     1.0000     1.0000    -0.0000
  1 H      1.0000     1.0000    -0.0000     1.0000     1.0000    -0.0000

  Mayer bond orders larger than 0.100000
B(  0-H ,  1-H ) :   1.0000 

-------
TIMINGS
-------

Total SCF time: 0 days 0 hours 0 min 0 sec 

Total time                  ....       0.287 sec
Sum of individual times     ....       0.163 sec  ( 56.8%)

Fock matrix formation       ....       0.144 sec  ( 50.2%)
  XC integration            ....       0.007 sec  (  5.2% of F)
    Basis function eval.    ....       0.001 sec  ( 14.6% of XC)
    Density eval.           ....       0.002 sec  ( 20.8% of XC)
    XC-Functional eval.     ....       0.003 sec  ( 39.8% of XC)
    XC-Potential eval.      ....       0.000 sec  (  2.7% of XC)
Diagonalization             ....       0.000 sec  (  0.0%)
Density matrix formation    ....       0.000 sec  (  0.0%)
Population analysis         ....       0.000 sec  (  0.1%)
Initial guess               ....       0.001 sec  (  0.3%)
Orbital Transformation      ....       0.000 sec  (  0.0%)
Orbital Orthonormalization  ....       0.000 sec  (  0.0%)
DIIS solution               ....       0.000 sec  (  0.0%)
SOSCF solution              ....       0.000 sec  (  0.0%)
Grid generation             ....       0.018 sec  (  6.2%)

-------------------------   --------------------
FINAL SINGLE POINT ENERGY        -1.168716429503
-------------------------   --------------------

                                *** OPTIMIZATION RUN DONE ***

                            ***************************************
                            *     ORCA property calculations      *
                            ***************************************

                                    ---------------------
                                    Active property flags
                                    ---------------------
   (+) Dipole Moment


------------------------------------------------------------------------------
                       ORCA ELECTRIC PROPERTIES CALCULATION
------------------------------------------------------------------------------

Dipole Moment Calculation                       ... on
Quadrupole Moment Calculation                   ... off
Polarizability Calculation                      ... off
GBWName                                         ... frequencyHydrogenDFT.gbw
Electron density file                           ... frequencyHydrogenDFT.scfp
The origin for moment calculation is the CENTER OF MASS  = (-8.729174,  3.206109  0.000000)

-------------
DIPOLE MOMENT
-------------
                                X             Y             Z
Electronic contribution:     -0.00000       0.00000      -0.00000
Nuclear contribution   :      0.00000      -0.00000       0.00000
                        -----------------------------------------
Total Dipole Moment    :     -0.00000       0.00000       0.00000
                        -----------------------------------------
Magnitude (a.u.)       :      0.00000
Magnitude (Debye)      :      0.00000



--------------------
Rotational spectrum 
--------------------
 
Rotational constants in cm-1:     0.000000    60.591892    60.591892 
Rotational constants in MHz :     0.000000 1816499.231505 1816499.231505 

 Dipole components along the rotational axes: 
x,y,z [a.u.] :     0.000000     0.000000     0.000000 
x,y,z [Debye]:     0.000000     0.000000     0.000000 

 

-------------------------------------------------------------------------------
                               ORCA SCF HESSIAN
-------------------------------------------------------------------------------

Hessian of the Kohn-Sham DFT energy:
Kohn-Sham wavefunction type                      ... RKS
Hartree-Fock exchange scaling                    ...    0.200
Number of operators                              ...    1
Number of atoms                                  ...    2
Basis set dimensions                             ...    4
Integral neglect threshold                       ... 2.5e-11
Integral primitive cutoff                        ... 2.5e-12

Setting up DFT Hessian calculations              ... 
Electron density on the grid                     ... found on disk
Electron density on the final grid               ... found on disk
Building xc-kernel on the grid                   ... done   (      0.0 sec)
Building xc-kernel on the final grid             ... done   (      0.0 sec)
                                                     done   (      0.0 sec)

Nuclear repulsion Hessian                        ... done   (      0.0 sec)

----------------------------------------------
Forming right-hand sides of CP-SCF equations     ...
----------------------------------------------
One electron integral derivatives                ... done   (      0.1 sec)
Transforming the overlap derivative matrices     ... done   (      0.0 sec)
Making the Q(x) pseudodensities                  ... done   (      0.0 sec)
Adding the E*S(x)*S(y) terms to the Hessian      ... done   (      0.0 sec)
Calculating energy weighted overlap derivatives  ... done   (      0.0 sec)
Two electron integral derivatives                ... done   (      0.1 sec)
Exchange-correlation integral derivatives        ... done   (      0.0 sec)
tr(F(y)Q(x)) contribution to the Hessian         ... done   (      0.0 sec)
Response fock operator R(S(x))                   ... done   (      0.1 sec)
XC Response fock operator R(S(x))                ... done   (      0.0 sec)
tr(F(y)S(x)) contribution to the Hessian         ... done   (      0.0 sec)
Transforming and finalizing RHSs                 ... done   (      0.0 sec)

----------------------------------------------
Solving the CP-SCF equations                     ...
----------------------------------------------
     CP-SCF ITERATION   0: 
     CP-SCF ITERATION   1:      0.000000000000

                                                 ... done   (      0.1 sec)
Forming perturbed density Hessian contributions  ... done   (      0.0 sec)
Making the perturbed densities                   ... done   (      0.0 sec)
2nd integral derivative contribs                 ... done   (      0.1 sec)
Exchange-correlation Hessian                     ... done   (      0.1 sec)
Dipol derivatives                                ... done   (      0.1 sec)

Total SCF Hessian time: 0 days 0 hours 0 min 0 sec 

Writing the Hessian file to the disk             ... done


Maximum memory used throughout the entire calculation: 57.5 MB

-----------------------
VIBRATIONAL FREQUENCIES
-----------------------

Scaling factor for frequencies =  1.000000000  (already applied!)

   0:         0.00 cm**-1
   1:         0.00 cm**-1
   2:         0.00 cm**-1
   3:         0.00 cm**-1
   4:         0.00 cm**-1
   5:      4450.37 cm**-1


------------
NORMAL MODES
------------

These modes are the Cartesian displacements weighted by the diagonal matrix
M(i,i)=1/sqrt(m[i]) where m[i] is the mass of the displaced atom
Thus, these vectors are normalized but *not* orthogonal

                  0          1          2          3          4          5    
      0       0.000000   0.000000   0.000000   0.000000   0.000000   0.701602
      1       0.000000   0.000000   0.000000   0.000000   0.000000   0.088059
      2       0.000000   0.000000   0.000000   0.000000   0.000000   0.000000
      3       0.000000   0.000000   0.000000   0.000000   0.000000  -0.701602
      4       0.000000   0.000000   0.000000   0.000000   0.000000  -0.088059
      5       0.000000   0.000000   0.000000   0.000000   0.000000   0.000000


-----------
IR SPECTRUM
-----------

 Mode    freq (cm**-1)   T**2         TX         TY         TZ
-------------------------------------------------------------------
   5:      4450.37    0.000000  (  0.000000   0.000000   0.000000)

The first frequency considered to be a vibration is 5
The total number of vibrations considered is 1


--------------------------
THERMOCHEMISTRY AT 298.15K
--------------------------

Temperature         ... 298.15 K
Pressure            ... 1.00 atm
Total Mass          ... 2.02 AMU
The molecule is recognized as being linear

Throughout the following assumptions are being made:
  (1) The electronic state is orbitally nondegenerate
  (2) There are no thermally accessible electronically excited states
  (3) Hindered rotations indicated by low frequency modes are not
      treated as such but are treated as vibrations and this may
      cause some error
  (4) All equations used are the standard statistical mechanics
      equations for an ideal gas
  (5) All vibrations are strictly harmonic

freq.    4450.37  E(vib)   ...       0.00 

------------
INNER ENERGY
------------

The inner energy is: U= E(el) + E(ZPE) + E(vib) + E(rot) + E(trans)
    E(el)   - is the total energy from the electronic structure calculation
              = E(kin-el) + E(nuc-el) + E(el-el) + E(nuc-nuc)
    E(ZPE)  - the the zero temperature vibrational energy from the frequency calculation
    E(vib)  - the the finite temperature correction to E(ZPE) due to population
              of excited vibrational states
    E(rot)  - is the rotational thermal energy
    E(trans)- is the translational thermal energy

Summary of contributions to the inner energy U:
Electronic energy                ...     -1.16871643 Eh
Zero point energy                ...      0.01013868 Eh       6.36 kcal/mol
Thermal vibrational correction   ...      0.00000000 Eh       0.00 kcal/mol
Thermal rotational correction    ...      0.00094418 Eh       0.59 kcal/mol
Thermal translational correction ...      0.00141627 Eh       0.89 kcal/mol
-----------------------------------------------------------------------
Total thermal energy                     -1.15621729 Eh


Summary of corrections to the electronic energy:
(perhaps to be used in another calculation)
Total thermal correction                  0.00236045 Eh       1.48 kcal/mol
Non-thermal (ZPE) correction              0.01013868 Eh       6.36 kcal/mol
-----------------------------------------------------------------------
Total correction                          0.01249914 Eh       7.84 kcal/mol


--------
ENTHALPY
--------

The enthalpy is H = U + kB*T
                kB is Boltzmann's constant
Total free energy                 ...     -1.15621729 Eh 
Thermal Enthalpy correction       ...      0.00094421 Eh       0.59 kcal/mol
-----------------------------------------------------------------------
Total Enthalpy                    ...     -1.15527308 Eh


Note: Rotational entropy computed according to Herzberg 
Infrared and Raman Spectra, Chapter V,1, Van Nostrand Reinhold, 1945 
Point Group:  Dinfh, Symmetry Number:   2  
Rotational constants in cm-1:     0.000000    60.591892    60.591892 

Vibrational entropy computed according to the QRRHO of S. Grimme
Chem.Eur.J. 2012 18 9955


-------
ENTROPY
-------

The entropy contributions are T*S = T*(S(el)+S(vib)+S(rot)+S(trans))
     S(el)   - electronic entropy
     S(vib)  - vibrational entropy
     S(rot)  - rotational entropy
     S(trans)- translational entropy
The entropies will be listed as mutliplied by the temperature to get
units of energy

Electronic entropy                ...      0.00000000 Eh      0.00 kcal/mol
Vibrational entropy               ...     -0.00000000 Eh     -0.00 kcal/mol
Rotational entropy                ...      0.00145074 Eh      0.91 kcal/mol
Translational entropy             ...      0.01334204 Eh      8.37 kcal/mol
-----------------------------------------------------------------------
Final entropy term                ...      0.01479278 Eh      9.28 kcal/mol

In case the symmetry of your molecule has not been determined correctly
or in case you have a reason to use a different symmetry number we print 
out the resulting rotational entropy values for sn=1,12 :
 --------------------------------------------------------
|  sn= 1 | S(rot)=              nan Eh       nan kcal/mol|
|  sn= 2 | S(rot)=              nan Eh       nan kcal/mol|
|  sn= 3 | S(rot)=              nan Eh       nan kcal/mol|
|  sn= 4 | S(rot)=              nan Eh       nan kcal/mol|
|  sn= 5 | S(rot)=              nan Eh       nan kcal/mol|
|  sn= 6 | S(rot)=              nan Eh       nan kcal/mol|
|  sn= 7 | S(rot)=              nan Eh       nan kcal/mol|
|  sn= 8 | S(rot)=              nan Eh       nan kcal/mol|
|  sn= 9 | S(rot)=              nan Eh       nan kcal/mol|
|  sn=10 | S(rot)=              nan Eh       nan kcal/mol|
|  sn=11 | S(rot)=              nan Eh       nan kcal/mol|
|  sn=12 | S(rot)=              nan Eh       nan kcal/mol|
 --------------------------------------------------------


-------------------
GIBBS FREE ENERGY
-------------------

The Gibbs free energy is G = H - T*S

Total enthalpy                    ...     -1.15527308 Eh 
Total entropy correction          ...     -0.01479278 Eh     -9.28 kcal/mol
-----------------------------------------------------------------------
Final Gibbs free energy         ...     -1.17006586 Eh

For completeness - the Gibbs free energy minus the electronic energy
G-E(el)                           ...     -0.00134943 Eh     -0.85 kcal/mol


Timings for individual modules:

Sum of individual times         ...       13.310 sec (=   0.222 min)
GTO integral calculation        ...        2.533 sec (=   0.042 min)  19.0 %
SCF iterations                  ...        8.314 sec (=   0.139 min)  62.5 %
SCF Gradient evaluation         ...        1.363 sec (=   0.023 min)  10.2 %
Geometry relaxation             ...        0.410 sec (=   0.007 min)   3.1 %
Analytical frequency calculation...        0.690 sec (=   0.012 min)   5.2 %
                             ****ORCA TERMINATED NORMALLY****
TOTAL RUN TIME: 0 days 0 hours 0 minutes 13 seconds 543 msec
