
                                 *****************
                                 * O   R   C   A *
                                 *****************

           --- An Ab Initio, DFT and Semiempirical electronic structure package ---

                  #######################################################
                  #                        -***-                        #
                  #          Department of theory and spectroscopy      #
                  #               Directorship: Frank Neese             #
                  #        Max Planck Institute fuer Kohlenforschung    #
                  #                Kaiser Wilhelm Platz 1               #
                  #                 D-45470 Muelheim/Ruhr               #
                  #                      Germany                        #
                  #                                                     #
                  #                  All rights reserved                #
                  #                        -***-                        #
                  #######################################################


                         Program Version 4.2.1 -  RELEASE  -


 With contributions from (in alphabetic order):
   Daniel Aravena         : Magnetic Suceptibility
   Michael Atanasov       : Ab Initio Ligand Field Theory (pilot matlab implementation)
   Alexander A. Auer      : GIAO ZORA, VPT2
   Ute Becker             : Parallelization
   Giovanni Bistoni       : ED, misc. LED, open-shell LED, HFLD
   Martin Brehm           : Molecular dynamics
   Dmytro Bykov           : SCF Hessian
   Vijay G. Chilkuri      : MRCI spin determinant printing, contributions to CSF-ICE
   Dipayan Datta          : RHF DLPNO-CCSD density
   Achintya Kumar Dutta   : EOM-CC, STEOM-CC
   Dmitry Ganyushin       : Spin-Orbit,Spin-Spin,Magnetic field MRCI
   Miquel Garcia          : C-PCM Hessian, Gaussian charge scheme
   Yang Guo               : DLPNO-NEVPT2, CIM, IAO-localization
   Andreas Hansen         : Spin unrestricted coupled pair/coupled cluster methods
   Benjamin Helmich-Paris : CASSCF linear response (MC-RPA)
   Lee Huntington         : MR-EOM, pCC
   Robert Izsak           : Overlap fitted RIJCOSX, COSX-SCS-MP3, EOM
   Christian Kollmar      : KDIIS, OOCD, Brueckner-CCSD(T), CCSD density
   Simone Kossmann        : Meta GGA functionals, TD-DFT gradient, OOMP2, MP2 Hessian
   Martin Krupicka        : AUTO-CI
   Lucas Lang             : DCDCAS
   Dagmar Lenk            : GEPOL surface, SMD
   Dimitrios Liakos       : Extrapolation schemes; Compound Job, initial MDCI parallelization
   Dimitrios Manganas     : Further ROCIS development; embedding schemes
   Dimitrios Pantazis     : SARC Basis sets
   Taras Petrenko         : DFT Hessian,TD-DFT gradient, ASA, ECA, R-Raman, ABS, FL, XAS/XES, NRVS
   Peter Pinski           : DLPNO-MP2, DLPNO-MP2 Gradient
   Christoph Reimann      : Effective Core Potentials
   Marius Retegan         : Local ZFS, SOC
   Christoph Riplinger    : Optimizer, TS searches, QM/MM, DLPNO-CCSD(T), (RO)-DLPNO pert. Triples
   Tobias Risthaus        : Range-separated hybrids, TD-DFT gradient, RPA, STAB
   Michael Roemelt        : Original ROCIS implementation
   Masaaki Saitow         : Open-shell DLPNO-CCSD energy and density
   Barbara Sandhoefer     : DKH picture change effects
   Avijit Sen             : IP-ROCIS
   Kantharuban Sivalingam : CASSCF convergence, NEVPT2, FIC-MRCI
   Bernardo de Souza      : ESD, SOC TD-DFT
   Georgi Stoychev        : AutoAux, RI-MP2 NMR
   Willem Van den Heuvel  : Paramagnetic NMR
   Boris Wezisla          : Elementary symmetry handling
   Frank Wennmohs         : Technical directorship


 We gratefully acknowledge several colleagues who have allowed us to
 interface, adapt or use parts of their codes:
   Stefan Grimme, W. Hujo, H. Kruse,             : VdW corrections, initial TS optimization,
                  C. Bannwarth                     DFT functionals, gCP, sTDA/sTD-DF
   Ed Valeev, F. Pavosevic, A. Kumar             : LibInt (2-el integral package), F12 methods
   Garnet Chan, S. Sharma, J. Yang, R. Olivares  : DMRG
   Ulf Ekstrom                                   : XCFun DFT Library
   Mihaly Kallay                                 : mrcc  (arbitrary order and MRCC methods)
   Andreas Klamt, Michael Diedenhofen            : otool_cosmo (COSMO solvation model)
   Jiri Pittner, Ondrej Demel                    : Mk-CCSD
   Frank Weinhold                                : gennbo (NPA and NBO analysis)
   Christopher J. Cramer and Donald G. Truhlar   : smd solvation model
   Lars Goerigk                                  : TD-DFT with DH, B97 family of functionals
   V. Asgeirsson, H. Jonsson                     : NEB implementation
   FAccTs GmbH                                   : IRC, NEB, NEB-TS, Multilevel, MM, QM/MM, CI optimization
   S Lehtola, MJT Oliveira, MAL Marques          : LibXC Library


 Your calculation uses the libint2 library for the computation of 2-el integrals
 For citations please refer to: http://libint.valeyev.net

 Your ORCA version has been built with support for libXC version: 4.2.3
 For citations please refer to: https://tddft.org/programs/libxc/

 This ORCA versions uses:
   CBLAS   interface :  Fast vector & matrix operations
   LAPACKE interface :  Fast linear algebra routines
   SCALAPACK package :  Parallel linear algebra routines




***************************************
The coordinates will be read from file: ../single_point_energy/water/water.xyz
***************************************


----- Orbital basis set information -----
Your calculation utilizes the basis: 6-31G
   H-He, Li-Ne : W. J. Hehre, R. Ditchfield and J.A. Pople, J. Chem. Phys. 56, 2257 (1972).
                 Note: He and Ne are unpublished basis sets taken from the Gaussian program.
                 Note: Li and B from J. D. Dill and J. A. Pople, J. Chem. Phys. 62, 2921 (1975).
   Na - Ar     : M. M. Francl, W. J. Pietro, W. J. Hehre, J. S. Binkley, M. S. Gordon, 
                 D. J. DeFrees and J. A. Pople, J. Chem. Phys. 77, 3654 (1982).
   K - Zn      : V. A. Rassolov, J. A. Pople, M. A. Ratner, and T. L. Windus, J. Chem. Phys. 109, 1223 (1998).

================================================================================
                                        WARNINGS
                       Please study these warnings very carefully!
================================================================================


WARNING: Geometry Optimization
  ===> : Switching off AutoStart
         For restart on a previous wavefunction, please use MOREAD

INFO   : the flag for use of LIBINT has been found!

================================================================================
                                       INPUT FILE
================================================================================
NAME = DFT_freq.txt
|  1> ! DFT B3LYP 6-31G Opt Freq
|  2> 
|  3> *xyzfile 0 1 ../single_point_energy/water/water.xyz
|  4> %base "frequencyWaterDFT""                         ****END OF INPUT****
================================================================================

                       *****************************
                       * Geometry Optimization Run *
                       *****************************

Geometry optimization settings:
Update method            Update   .... BFGS
Choice of coordinates    CoordSys .... Z-matrix Internals
Initial Hessian          InHess   .... Almoef's Model

Convergence Tolerances:
Energy Change            TolE     ....  5.0000e-06 Eh
Max. Gradient            TolMAXG  ....  3.0000e-04 Eh/bohr
RMS Gradient             TolRMSG  ....  1.0000e-04 Eh/bohr
Max. Displacement        TolMAXD  ....  4.0000e-03 bohr
RMS Displacement         TolRMSD  ....  2.0000e-03 bohr
Strict Convergence                ....  False
------------------------------------------------------------------------------
                        ORCA OPTIMIZATION COORDINATE SETUP
------------------------------------------------------------------------------

The optimization will be done in new redundant internal coordinates
Making redundant internal coordinates   ...  (new redundants) done
Evaluating the initial hessian          ...  (Almloef) done
Evaluating the coordinates              ...  done
Calculating the B-matrix                .... done
Calculating the G-matrix                .... done
Diagonalizing the G-matrix              .... done
The first mode is                       ....    0
The number of degrees of freedom        ....    3

    -----------------------------------------------------------------
                    Redundant Internal Coordinates


    -----------------------------------------------------------------
         Definition                    Initial Value    Approx d2E/dq
    -----------------------------------------------------------------
      1. B(H   1,O   0)                  1.6462         0.041797   
      2. B(H   2,O   0)                  1.7040         0.033798   
      3. A(H   1,O   0,H   2)           93.7019         0.159887   
    -----------------------------------------------------------------

Number of atoms                         .... 3
Number of degrees of freedom            .... 3

         *************************************************************
         *                GEOMETRY OPTIMIZATION CYCLE   1            *
         *************************************************************
---------------------------------
CARTESIAN COORDINATES (ANGSTROEM)
---------------------------------
  O     -3.319480    1.987730    0.000000
  H     -1.893830    1.527550    0.682490
  H     -2.578200    2.576280   -1.417000

----------------------------
CARTESIAN COORDINATES (A.U.)
----------------------------
  NO LB      ZA    FRAG     MASS         X           Y           Z
   0 O     8.0000    0    15.999   -6.272908    3.756265    0.000000
   1 H     1.0000    0     1.008   -3.578820    2.886651    1.289719
   2 H     1.0000    0     1.008   -4.872092    4.868464   -2.677742

--------------------------------
INTERNAL COORDINATES (ANGSTROEM)
--------------------------------
 O      0   0   0     0.000000000000     0.00000000     0.00000000
 H      1   0   0     1.646218744578     0.00000000     0.00000000
 H      1   2   0     1.704046989053    93.70190767     0.00000000

---------------------------
INTERNAL COORDINATES (A.U.)
---------------------------
 O      0   0   0     0.000000000000     0.00000000     0.00000000
 H      1   0   0     3.110902583780     0.00000000     0.00000000
 H      1   2   0     3.220182128643    93.70190767     0.00000000

---------------------
BASIS SET INFORMATION
---------------------
There are 2 groups of distinct atoms

 Group   1 Type O   : 10s4p contracted to 3s2p pattern {631/31}
 Group   2 Type H   : 4s contracted to 2s pattern {31}

Atom   0O    basis set group =>   1
Atom   1H    basis set group =>   2
Atom   2H    basis set group =>   2
------------------------------------------------------------------------------
                           ORCA GTO INTEGRAL CALCULATION
------------------------------------------------------------------------------

                         BASIS SET STATISTICS AND STARTUP INFO

 # of primitive gaussian shells          ...   22
 # of primitive gaussian functions       ...   30
 # of contracted shells                  ...    9
 # of contracted basis functions         ...   13
 Highest angular momentum                ...    1
 Maximum contraction depth               ...    6
 Integral package used                   ... LIBINT
 Integral threshhold            Thresh   ...  2.500e-11
 Primitive cut-off              TCut     ...  2.500e-12


------------------------------ INTEGRAL EVALUATION ----------------------------


 * One electron integrals 
 Pre-screening matrix                    ... done
 Shell pair data                         ... done (   0.000 sec)

-------------------------------------------------------------------------------
                                 ORCA SCF
-------------------------------------------------------------------------------

------------
SCF SETTINGS
------------
Hamiltonian:
 Density Functional     Method          .... DFT(GTOs)
 Exchange Functional    Exchange        .... B88
   X-Alpha parameter    XAlpha          ....  0.666667
   Becke's b parameter  XBeta           ....  0.004200
 Correlation Functional Correlation     .... LYP
 LDA part of GGA corr.  LDAOpt          .... VWN-5
 Gradients option       PostSCFGGA      .... off
 Hybrid DFT is turned on
   Fraction HF Exchange ScalHFX         ....  0.200000
   Scaling of DF-GGA-X  ScalDFX         ....  0.720000
   Scaling of DF-GGA-C  ScalDFC         ....  0.810000
   Scaling of DF-LDA-C  ScalLDAC        ....  1.000000
   Perturbative correction              ....  0.000000
   Density functional embedding theory  .... OFF
   NL short-range parameter             ....  4.800000


General Settings:
 Integral files         IntName         .... frequencyWaterDFT
 Hartree-Fock type      HFTyp           .... RHF
 Total Charge           Charge          ....    0
 Multiplicity           Mult            ....    1
 Number of Electrons    NEL             ....   10
 Basis Dimension        Dim             ....   13
 Nuclear Repulsion      ENuc            ....      5.2724005323 Eh

Convergence Acceleration:
 DIIS                   CNVDIIS         .... on
   Start iteration      DIISMaxIt       ....    12
   Startup error        DIISStart       ....  0.200000
   # of expansion vecs  DIISMaxEq       ....     5
   Bias factor          DIISBfac        ....   1.050
   Max. coefficient     DIISMaxC        ....  10.000
 Newton-Raphson         CNVNR           .... off
 SOSCF                  CNVSOSCF        .... on
   Start iteration      SOSCFMaxIt      ....   150
   Startup grad/error   SOSCFStart      ....  0.003300
 Level Shifting         CNVShift        .... on
   Level shift para.    LevelShift      ....    0.2500
   Turn off err/grad.   ShiftErr        ....    0.0010
 Zerner damping         CNVZerner       .... off
 Static damping         CNVDamp         .... on
   Fraction old density DampFac         ....    0.7000
   Max. Damping (<1)    DampMax         ....    0.9800
   Min. Damping (>=0)   DampMin         ....    0.0000
   Turn off err/grad.   DampErr         ....    0.1000
 Fernandez-Rico         CNVRico         .... off

SCF Procedure:
 Maximum # iterations   MaxIter         ....   125
 SCF integral mode      SCFMode         .... Direct
   Integral package                     .... LIBINT
 Reset frequency        DirectResetFreq ....    20
 Integral Threshold     Thresh          ....  2.500e-11 Eh
 Primitive CutOff       TCut            ....  2.500e-12 Eh

Convergence Tolerance:
 Convergence Check Mode ConvCheckMode   .... Total+1el-Energy
 Convergence forced     ConvForced      .... 0
 Energy Change          TolE            ....  1.000e-08 Eh
 1-El. energy change                    ....  1.000e-05 Eh
 Orbital Gradient       TolG            ....  1.000e-05
 Orbital Rotation angle TolX            ....  1.000e-05
 DIIS Error             TolErr          ....  5.000e-07


Diagonalization of the overlap matrix:
Smallest eigenvalue                        ... 1.624e-01
Time for diagonalization                   ...    0.001 sec
Threshold for overlap eigenvalues          ... 1.000e-08
Number of eigenvalues below threshold      ... 0
Time for construction of square roots      ...    0.001 sec
Total time needed                          ...    0.001 sec

-------------------
DFT GRID GENERATION
-------------------

General Integration Accuracy     IntAcc      ...  4.340
Radial Grid Type                 RadialGrid  ... Gauss-Chebyshev
Angular Grid (max. acc.)         AngularGrid ... Lebedev-110
Angular grid pruning method      GridPruning ... 3 (G Style)
Weight generation scheme         WeightScheme... Becke
Basis function cutoff            BFCut       ...    1.0000e-11
Integration weight cutoff        WCut        ...    1.0000e-14
Grids for H and He will be reduced by one unit

# of grid points (after initial pruning)     ...   3304 (   0.0 sec)
# of grid points (after weights+screening)   ...   3301 (   0.0 sec)
nearest neighbour list constructed           ...    0.0 sec
Grid point re-assignment to atoms done       ...    0.0 sec
Grid point division into batches done        ...    0.0 sec
Reduced shell lists constructed in    0.0 sec

Total number of grid points                  ...     3301
Total number of batches                      ...       52
Average number of points per batch           ...       63
Average number of grid points per atom       ...     1100
Average number of shells per batch           ...     8.11 (90.15%)
Average number of basis functions per batch  ...    11.92 (91.73%)
Average number of large shells per batch     ...     7.62 (93.95%)
Average number of large basis fcns per batch ...    11.28 (94.62%)
Maximum spatial batch extension              ...  22.22, 22.51, 18.30 au
Average spatial batch extension              ...   5.93,  6.48,  5.51 au

Time for grid setup =    0.009 sec

------------------------------
INITIAL GUESS: MODEL POTENTIAL
------------------------------
Loading Hartree-Fock densities                     ... done
Calculating cut-offs                               ... done
Setting up the integral package                    ... done
Initializing the effective Hamiltonian             ... done
Starting the Coulomb interaction                   ... done (   0.0 sec)
Reading the grid                                   ... done
Mapping shells                                     ... done
Starting the XC term evaluation                    ... done (   0.0 sec)
  promolecular density results
     # of electrons  =      9.998184224
     EX              =     -8.612240195
     EC              =     -0.316734903
     EX+EC           =     -8.928975098
Transforming the Hamiltonian                       ... done (   0.0 sec)
Diagonalizing the Hamiltonian                      ... done (   0.0 sec)
Back transforming the eigenvectors                 ... done (   0.0 sec)
Now organizing SCF variables                       ... done
                      ------------------
                      INITIAL GUESS DONE (   0.1 sec)
                      ------------------
--------------
SCF ITERATIONS
--------------
ITER       Energy         Delta-E        Max-DP      RMS-DP      [F,P]     Damp
               ***  Starting incremental Fock matrix formation  ***
  0    -75.8996367606   0.000000000000 0.15989673  0.03022709  0.3812903 0.7000
  1    -76.0399914070  -0.140354646411 0.09184981  0.01655848  0.0823084 0.7000
                               ***Turning on DIIS***
  2    -76.0457269256  -0.005735518627 0.03080640  0.00549760  0.1044585 0.7000
  3    -76.0673371612  -0.021610235564 0.07353789  0.01565556  0.0701207 0.0000
  4    -76.1128222030  -0.045485041848 0.02818938  0.00465758  0.0832282 0.0000
  5    -76.1193654441  -0.006543241050 0.00990700  0.00171346  0.0399011 0.0000
  6    -76.1208368304  -0.001471386258 0.00563483  0.00105086  0.0204002 0.0000
  7    -76.1212564293  -0.000419598981 0.00302172  0.00054125  0.0095839 0.0000
  8    -76.1213509457  -0.000094516379 0.00150666  0.00025998  0.0042849 0.0000
                      *** Initiating the SOSCF procedure ***
                           *** Shutting down DIIS ***
                      *** Re-Reading the Fockian *** 
                      *** Removing any level shift *** 
ITER      Energy       Delta-E        Grad      Rot      Max-DP    RMS-DP
  9    -76.12137027  -0.0000193235  0.000304  0.000304  0.000643  0.000108
               *** Restarting incremental Fock matrix formation ***
 10    -76.12137359  -0.0000033171  0.000494  0.002250  0.002186  0.000386
 11    -76.12136129   0.0000122977  0.001882  0.001613  0.001678  0.000300
 12    -76.12137444  -0.0000131563  0.000019  0.000031  0.000040  0.000008
 13    -76.12137445  -0.0000000023  0.000005  0.000015  0.000012  0.000002
                 **** Energy Check signals convergence ****
              ***Rediagonalizing the Fockian in SOSCF/NRSCF***

               *****************************************************
               *                     SUCCESS                       *
               *           SCF CONVERGED AFTER  14 CYCLES          *
               *****************************************************

Setting up the final grid:

General Integration Accuracy     IntAcc      ...  4.670
Radial Grid Type                 RadialGrid  ... Gauss-Chebyshev
Angular Grid (max. acc.)         AngularGrid ... Lebedev-302
Angular grid pruning method      GridPruning ... 3 (G Style)
Weight generation scheme         WeightScheme... Becke
Basis function cutoff            BFCut       ...    1.0000e-11
Integration weight cutoff        WCut        ...    1.0000e-14
Grids for H and He will be reduced by one unit

# of grid points (after initial pruning)     ...  13000 (   0.0 sec)
# of grid points (after weights+screening)   ...  12959 (   0.0 sec)
nearest neighbour list constructed           ...    0.0 sec
Grid point re-assignment to atoms done       ...    0.0 sec
Grid point division into batches done        ...    0.0 sec
Reduced shell lists constructed in    0.0 sec

Total number of grid points                  ...    12959
Total number of batches                      ...      205
Average number of points per batch           ...       63
Average number of grid points per atom       ...     4320
Average number of shells per batch           ...     7.42 (82.42%)
Average number of basis functions per batch  ...    10.91 (83.94%)
Average number of large shells per batch     ...     6.77 (91.30%)
Average number of large basis fcns per batch ...    10.04 (92.04%)
Maximum spatial batch extension              ...  16.88, 16.92, 16.88 au
Average spatial batch extension              ...   3.43,  3.49,  3.26 au

Final grid set up in    0.0 sec
Final integration                            ... done (   0.0 sec)
Change in XC energy                          ...     0.000312257
Integrated number of electrons               ...     9.999971219
Previous integrated no of electrons          ...     9.999210744

----------------
TOTAL SCF ENERGY
----------------

Total Energy       :          -76.12106219 Eh           -2071.35941 eV

Components:
Nuclear Repulsion  :            5.27240053 Eh             143.46931 eV
Electronic Energy  :          -81.39346272 Eh           -2214.82872 eV
One Electron Energy:         -115.41967332 Eh           -3140.72898 eV
Two Electron Energy:           34.02621060 Eh             925.90026 eV

Virial components:
Potential Energy   :         -151.23222655 Eh           -4115.23810 eV
Kinetic Energy     :           75.11116436 Eh            2043.87869 eV
Virial Ratio       :            2.01344538


DFT components:
N(Alpha)           :        4.999985609529 electrons
N(Beta)            :        4.999985609529 electrons
N(Total)           :        9.999971219058 electrons
E(X)               :       -6.849876532689 Eh       
E(C)               :       -0.381463768815 Eh       
E(XC)              :       -7.231340301504 Eh       
DFET-embed. en.    :        0.000000000000 Eh       

---------------
SCF CONVERGENCE
---------------

  Last Energy change         ...   -3.0921e-10  Tolerance :   1.0000e-08
  Last MAX-Density change    ...    4.3725e-06  Tolerance :   1.0000e-07
  Last RMS-Density change    ...    9.7435e-07  Tolerance :   5.0000e-09
  Last Orbital Gradient      ...    1.5901e-06  Tolerance :   1.0000e-05
  Last Orbital Rotation      ...    4.4927e-06  Tolerance :   1.0000e-05

             **** THE GBW FILE WAS UPDATED (frequencyWaterDFT.gbw) ****
             **** DENSITY FILE WAS UPDATED (frequencyWaterDFT.scfp) ****
             **** ENERGY FILE WAS UPDATED (frequencyWaterDFT.en.tmp) ****
             **** THE GBW FILE WAS UPDATED (frequencyWaterDFT.gbw) ****
             **** DENSITY FILE WAS UPDATED (frequencyWaterDFT.scfp) ****
----------------
ORBITAL ENERGIES
----------------

  NO   OCC          E(Eh)            E(eV) 
   0   2.0000     -19.215388      -522.8773 
   1   2.0000      -0.883833       -24.0503 
   2   2.0000      -0.357479        -9.7275 
   3   2.0000      -0.345320        -9.3966 
   4   2.0000      -0.284779        -7.7492 
   5   0.0000      -0.125690        -3.4202 
   6   0.0000      -0.097719        -2.6591 
   7   0.0000       0.689697        18.7676 
   8   0.0000       0.781593        21.2682 
   9   0.0000       0.895608        24.3707 
  10   0.0000       0.960277        26.1305 
  11   0.0000       0.992691        27.0125 
  12   0.0000       1.158057        31.5123 

                    ********************************
                    * MULLIKEN POPULATION ANALYSIS *
                    ********************************

-----------------------
MULLIKEN ATOMIC CHARGES
-----------------------
   0 O :   -0.351101
   1 H :    0.181849
   2 H :    0.169251
Sum of atomic charges:    0.0000000

--------------------------------
MULLIKEN REDUCED ORBITAL CHARGES
--------------------------------
  0 O s       :     3.994182  s :     3.994182
      pz      :     1.331622  p :     4.356919
      px      :     1.175315
      py      :     1.849981
  1 H s       :     0.818151  s :     0.818151
  2 H s       :     0.830749  s :     0.830749


                     *******************************
                     * LOEWDIN POPULATION ANALYSIS *
                     *******************************

----------------------
LOEWDIN ATOMIC CHARGES
----------------------
   0 O :   -0.357927
   1 H :    0.183936
   2 H :    0.173991

-------------------------------
LOEWDIN REDUCED ORBITAL CHARGES
-------------------------------
  0 O s       :     3.957395  s :     3.957395
      pz      :     1.350910  p :     4.400531
      px      :     1.195141
      py      :     1.854480
  1 H s       :     0.816064  s :     0.816064
  2 H s       :     0.826009  s :     0.826009


                      *****************************
                      * MAYER POPULATION ANALYSIS *
                      *****************************

  NA   - Mulliken gross atomic population
  ZA   - Total nuclear charge
  QA   - Mulliken gross atomic charge
  VA   - Mayer's total valence
  BVA  - Mayer's bonded valence
  FA   - Mayer's free valence

  ATOM       NA         ZA         QA         VA         BVA        FA
  0 O      8.3511     8.0000    -0.3511     1.9254     1.9254     0.0000
  1 H      0.8182     1.0000     0.1818     0.9599     0.9599     0.0000
  2 H      0.8307     1.0000     0.1693     0.9656     0.9656     0.0000

  Mayer bond orders larger than 0.100000
B(  0-O ,  1-H ) :   0.9599 B(  0-O ,  2-H ) :   0.9656 

-------
TIMINGS
-------

Total SCF time: 0 days 0 hours 0 min 1 sec 

Total time                  ....       1.346 sec
Sum of individual times     ....       1.218 sec  ( 90.5%)

Fock matrix formation       ....       1.105 sec  ( 82.1%)
  XC integration            ....       0.061 sec  (  5.5% of F)
    Basis function eval.    ....       0.016 sec  ( 27.1% of XC)
    Density eval.           ....       0.012 sec  ( 18.9% of XC)
    XC-Functional eval.     ....       0.018 sec  ( 29.2% of XC)
    XC-Potential eval.      ....       0.004 sec  (  6.6% of XC)
Diagonalization             ....       0.000 sec  (  0.0%)
Density matrix formation    ....       0.000 sec  (  0.0%)
Population analysis         ....       0.001 sec  (  0.1%)
Initial guess               ....       0.062 sec  (  4.6%)
Orbital Transformation      ....       0.000 sec  (  0.0%)
Orbital Orthonormalization  ....       0.000 sec  (  0.0%)
DIIS solution               ....       0.001 sec  (  0.1%)
SOSCF solution              ....       0.001 sec  (  0.0%)
Grid generation             ....       0.048 sec  (  3.6%)

-------------------------   --------------------
FINAL SINGLE POINT ENERGY       -76.121062190091
-------------------------   --------------------

------------------------------------------------------------------------------
                         ORCA SCF GRADIENT CALCULATION
------------------------------------------------------------------------------

Gradient of the Kohn-Sham DFT energy:
Kohn-Sham wavefunction type      ... RKS
Hartree-Fock exchange scaling    ...    0.200
Number of operators              ...    1
Number of atoms                  ...    3
Basis set dimensions             ...   13
Integral neglect threshold       ... 2.5e-11
Integral primitive cutoff        ... 2.5e-12

Nuclear repulsion gradient       ... done
One Electron Gradient            ... done
Pre-screening matrix             ... done
Starting the two electron gradient:
Two electron gradient done
Exchange-correlation gradient    ... done

------------------
CARTESIAN GRADIENT
------------------

   1   O   :   -0.117001998   -0.004727189    0.035093862
   2   H   :    0.079528047   -0.026519076    0.039774652
   3   H   :    0.037473951    0.031246265   -0.074868514

Difference to translation invariance:
           :   -0.0000000000   -0.0000000000   -0.0000000000

Norm of the cartesian gradient     ...    0.1775930971
RMS gradient                       ...    0.0591976990
MAX gradient                       ...    0.1170019981

-------
TIMINGS
-------

Total SCF gradient time            ...        0.115 sec

One electron gradient       ....       0.001 sec  (  0.6%)
Prescreening matrices       ....       0.001 sec  (  0.5%)
Two electron gradient       ....       0.006 sec  (  5.3%)
XC gradient                 ....       0.038 sec  ( 33.3%)
------------------------------------------------------------------------------
                         ORCA GEOMETRY RELAXATION STEP
------------------------------------------------------------------------------

Reading the OPT-File                    .... done
Getting information on internals        .... done
Copying old internal coords+grads       .... done
Making the new internal coordinates     .... (new redundants).... done
Validating the new internal coordinates .... (new redundants).... done
Calculating the B-matrix                .... done
Calculating the G,G- and P matrices     .... done
Transforming gradient to internals      .... done
Projecting the internal gradient        .... done
Number of atoms                         ....   3
Number of internal coordinates          ....   3
Current Energy                          ....   -76.121062190 Eh
Current gradient norm                   ....     0.177593097 Eh/bohr
Maximum allowed component of the step   ....  0.300
Current trust radius                    ....  0.300
Evaluating the initial hessian          ....  (Almloef) done
Projecting the Hessian                  .... done
Forming the augmented Hessian           .... done
Diagonalizing the augmented Hessian     .... done
Last element of RFO vector              ....  0.756673452
Lowest eigenvalues of augmented Hessian:
 -0.111321536  0.037609869  0.148308151
Length of the computed step             ....  0.864035864
Warning: the length of the step is outside the trust region - taking restricted step instead
The input lambda is                     ....    -0.111322
   iter:   1  x=   -0.176832  g=   10.022255 f(x)=     0.656558
   iter:   2  x=   -0.257328  g=    3.357340 f(x)=     0.270252
   iter:   3  x=   -0.335205  g=    1.291014 f(x)=     0.100541
   iter:   4  x=   -0.381018  g=    0.639474 f(x)=     0.029296
   iter:   5  x=   -0.391269  g=    0.451764 f(x)=     0.004631
   iter:   6  x=   -0.391661  g=    0.420157 f(x)=     0.000165
   iter:   7  x=   -0.391661  g=    0.419008 f(x)=     0.000000
   iter:   8  x=   -0.391661  g=    0.419006 f(x)=     0.000000
   iter:   9  x=   -0.391661  g=    0.419006 f(x)=     0.000000
The output lambda is                    ....    -0.391661 (9 iterations)
The final length of the internal step   ....  0.300000000
Converting the step to cartesian space:
 Initial RMS(Int)=    0.1732050808
Transforming coordinates:
 Iter   0:  RMS(Cart)=    0.0857946214 RMS(Int)=    0.1731866155
 Iter   1:  RMS(Cart)=    0.0003913252 RMS(Int)=    0.0004131180
 Iter   2:  RMS(Cart)=    0.0000276261 RMS(Int)=    0.0000298213
 Iter   3:  RMS(Cart)=    0.0000019778 RMS(Int)=    0.0000021314
 Iter   4:  RMS(Cart)=    0.0000001415 RMS(Int)=    0.0000001525
 Iter   5:  RMS(Cart)=    0.0000000101 RMS(Int)=    0.0000000109
done
Storing new coordinates                 .... done

                                .--------------------.
          ----------------------|Geometry convergence|-------------------------
          Item                value                   Tolerance       Converged
          ---------------------------------------------------------------------
          RMS gradient        0.0744236751            0.0001000000      NO
          MAX gradient        0.0927855326            0.0003000000      NO
          RMS step            0.1732050808            0.0020000000      NO
          MAX step            0.2140585547            0.0040000000      NO
          ........................................................
          Max(Bonds)      0.1133      Max(Angles)    0.53
          Max(Dihed)        0.00      Max(Improp)    0.00
          ---------------------------------------------------------------------

The optimization has not yet converged - more geometry cycles are needed


    ---------------------------------------------------------------------------
                         Redundant Internal Coordinates
                            (Angstroem and degrees)

        Definition                    Value    dE/dq     Step     New-Value
    ----------------------------------------------------------------------------
     1. B(H   1,O   0)                1.6462  0.092786 -0.1133    1.5329   
     2. B(H   2,O   0)                1.7040  0.089341 -0.1111    1.5929   
     3. A(H   1,O   0,H   2)           93.70  0.005075   -0.53     93.17   
    ----------------------------------------------------------------------------

         *************************************************************
         *                GEOMETRY OPTIMIZATION CYCLE   2            *
         *************************************************************
---------------------------------
CARTESIAN COORDINATES (ANGSTROEM)
---------------------------------
  O     -3.273758    1.989492   -0.013471
  H     -1.941931    1.563848    0.615004
  H     -2.575821    2.538221   -1.336043

----------------------------
CARTESIAN COORDINATES (A.U.)
----------------------------
  NO LB      ZA    FRAG     MASS         X           Y           Z
   0 O     8.0000    0    15.999   -6.186506    3.759594   -0.025457
   1 H     1.0000    0     1.008   -3.669718    2.955244    1.162189
   2 H     1.0000    0     1.008   -4.867596    4.796542   -2.524755

--------------------------------
INTERNAL COORDINATES (ANGSTROEM)
--------------------------------
 O      0   0   0     0.000000000000     0.00000000     0.00000000
 H      1   0   0     1.532943836111     0.00000000     0.00000000
 H      1   2   0     1.592926976635    93.17475355     0.00000000

---------------------------
INTERNAL COORDINATES (A.U.)
---------------------------
 O      0   0   0     0.000000000000     0.00000000     0.00000000
 H      1   0   0     2.896844028933     0.00000000     0.00000000
 H      1   2   0     3.010195737175    93.17475355     0.00000000


Diagonalization of the overlap matrix:
Smallest eigenvalue                        ... 1.526e-01
Time for diagonalization                   ...    0.000 sec
Threshold for overlap eigenvalues          ... 1.000e-08
Number of eigenvalues below threshold      ... 0
Time for construction of square roots      ...    0.000 sec
Total time needed                          ...    0.000 sec

-------------------
DFT GRID GENERATION
-------------------

General Integration Accuracy     IntAcc      ...  4.340
Radial Grid Type                 RadialGrid  ... Gauss-Chebyshev
Angular Grid (max. acc.)         AngularGrid ... Lebedev-110
Angular grid pruning method      GridPruning ... 3 (G Style)
Weight generation scheme         WeightScheme... Becke
Basis function cutoff            BFCut       ...    1.0000e-11
Integration weight cutoff        WCut        ...    1.0000e-14
Grids for H and He will be reduced by one unit

# of grid points (after initial pruning)     ...   3304 (   0.0 sec)
# of grid points (after weights+screening)   ...   3299 (   0.0 sec)
nearest neighbour list constructed           ...    0.0 sec
Grid point re-assignment to atoms done       ...    0.0 sec
Grid point division into batches done        ...    0.0 sec
Reduced shell lists constructed in    0.0 sec

Total number of grid points                  ...     3299
Total number of batches                      ...       54
Average number of points per batch           ...       61
Average number of grid points per atom       ...     1100
Average number of shells per batch           ...     8.11 (90.10%)
Average number of basis functions per batch  ...    11.93 (91.75%)
Average number of large shells per batch     ...     7.78 (95.96%)
Average number of large basis fcns per batch ...    11.42 (95.73%)
Maximum spatial batch extension              ...  21.80, 21.59, 18.30 au
Average spatial batch extension              ...   6.09,  5.92,  5.35 au

Time for grid setup =    0.005 sec

--------------
SCF ITERATIONS
--------------
ITER       Energy         Delta-E        Max-DP      RMS-DP      [F,P]     Damp
               ***  Starting incremental Fock matrix formation  ***
  0    -76.1602569968   0.000000000000 0.00731795  0.00124393  0.0204052 0.7000
  1    -76.1605715622  -0.000314565445 0.00600254  0.00100222  0.0100672 0.7000
                               ***Turning on DIIS***
  2    -76.1607285435  -0.000156981306 0.01118070  0.00224595  0.0078112 0.0000
                      *** Initiating the SOSCF procedure ***
                           *** Shutting down DIIS ***
                      *** Re-Reading the Fockian *** 
                      *** Removing any level shift *** 
ITER      Energy       Delta-E        Grad      Rot      Max-DP    RMS-DP
  3    -76.16113648  -0.0004079402  0.001916  0.001916  0.002976  0.000583
               *** Restarting incremental Fock matrix formation ***
  4    -76.16113274   0.0000037451  0.002058  0.007964  0.009065  0.001467
  5    -76.16096885   0.0001638878  0.006917  0.005727  0.006298  0.001136
  6    -76.16114936  -0.0001805076  0.000067  0.000217  0.000151  0.000034
  7    -76.16114941  -0.0000000470  0.000017  0.000056  0.000070  0.000011
  8    -76.16114941  -0.0000000035  0.000006  0.000015  0.000013  0.000003
                 **** Energy Check signals convergence ****
              ***Rediagonalizing the Fockian in SOSCF/NRSCF***

               *****************************************************
               *                     SUCCESS                       *
               *           SCF CONVERGED AFTER   9 CYCLES          *
               *****************************************************

Setting up the final grid:

General Integration Accuracy     IntAcc      ...  4.670
Radial Grid Type                 RadialGrid  ... Gauss-Chebyshev
Angular Grid (max. acc.)         AngularGrid ... Lebedev-302
Angular grid pruning method      GridPruning ... 3 (G Style)
Weight generation scheme         WeightScheme... Becke
Basis function cutoff            BFCut       ...    1.0000e-11
Integration weight cutoff        WCut        ...    1.0000e-14
Grids for H and He will be reduced by one unit

# of grid points (after initial pruning)     ...  13000 (   0.0 sec)
# of grid points (after weights+screening)   ...  12954 (   0.0 sec)
nearest neighbour list constructed           ...    0.0 sec
Grid point re-assignment to atoms done       ...    0.0 sec
Grid point division into batches done        ...    0.0 sec
Reduced shell lists constructed in    0.0 sec

Total number of grid points                  ...    12954
Total number of batches                      ...      204
Average number of points per batch           ...       63
Average number of grid points per atom       ...     4318
Average number of shells per batch           ...     7.43 (82.55%)
Average number of basis functions per batch  ...    10.92 (84.02%)
Average number of large shells per batch     ...     6.90 (92.84%)
Average number of large basis fcns per batch ...    10.18 (93.17%)
Maximum spatial batch extension              ...  16.88, 16.92, 16.88 au
Average spatial batch extension              ...   3.41,  3.53,  3.26 au

Final grid set up in    0.0 sec
Final integration                            ... done (   0.0 sec)
Change in XC energy                          ...     0.000044722
Integrated number of electrons               ...     9.999976187
Previous integrated no of electrons          ...     9.999334018
Total Energy       :          -76.16110469 Eh           -2072.44902 eV
  Last Energy change         ...   -3.6772e-10  Tolerance :   1.0000e-08
  Last MAX-Density change    ...    2.5134e-06  Tolerance :   1.0000e-07
             **** THE GBW FILE WAS UPDATED (frequencyWaterDFT.gbw) ****
             **** DENSITY FILE WAS UPDATED (frequencyWaterDFT.scfp) ****
             **** ENERGY FILE WAS UPDATED (frequencyWaterDFT.en.tmp) ****
             **** THE GBW FILE WAS UPDATED (frequencyWaterDFT.gbw) ****
             **** DENSITY FILE WAS UPDATED (frequencyWaterDFT.scfp) ****
Total SCF time: 0 days 0 hours 0 min 0 sec 

-------------------------   --------------------
FINAL SINGLE POINT ENERGY       -76.161104687146
-------------------------   --------------------

------------------------------------------------------------------------------
                         ORCA SCF GRADIENT CALCULATION
------------------------------------------------------------------------------

Gradient of the Kohn-Sham DFT energy:
Kohn-Sham wavefunction type      ... RKS
Hartree-Fock exchange scaling    ...    0.200
Number of operators              ...    1
Number of atoms                  ...    3
Basis set dimensions             ...   13
Integral neglect threshold       ... 2.5e-11
Integral primitive cutoff        ... 2.5e-12

Nuclear repulsion gradient       ... done
One Electron Gradient            ... done
Pre-screening matrix             ... done
Starting the two electron gradient:
Two electron gradient done
Exchange-correlation gradient    ... done

------------------
CARTESIAN GRADIENT
------------------

   1   O   :   -0.126300839   -0.005508745    0.038725918
   2   H   :    0.085203526   -0.027801337    0.041265489
   3   H   :    0.041097313    0.033310082   -0.079991406

Difference to translation invariance:
           :    0.0000000000   -0.0000000000    0.0000000000

Norm of the cartesian gradient     ...    0.1908258794
RMS gradient                       ...    0.0636086265
MAX gradient                       ...    0.1263008388

-------
TIMINGS
-------

Total SCF gradient time            ...        0.106 sec

One electron gradient       ....       0.000 sec  (  0.3%)
Prescreening matrices       ....       0.000 sec  (  0.3%)
Two electron gradient       ....       0.002 sec  (  1.8%)
XC gradient                 ....       0.037 sec  ( 35.3%)
------------------------------------------------------------------------------
                         ORCA GEOMETRY RELAXATION STEP
------------------------------------------------------------------------------

Reading the OPT-File                    .... done
Getting information on internals        .... done
Copying old internal coords+grads       .... done
Making the new internal coordinates     .... (new redundants).... done
Validating the new internal coordinates .... (new redundants).... done
Calculating the B-matrix                .... done
Calculating the G,G- and P matrices     .... done
Transforming gradient to internals      .... done
Projecting the internal gradient        .... done
Number of atoms                         ....   3
Number of internal coordinates          ....   3
Current Energy                          ....   -76.161104687 Eh
Current gradient norm                   ....     0.190825879 Eh/bohr
Maximum allowed component of the step   ....  0.300
Current trust radius                    ....  0.300
Updating the Hessian (BFGS)             .... done
Forming the augmented Hessian           .... done
Diagonalizing the augmented Hessian     .... done
Last element of RFO vector              ....  0.668530668
Lowest eigenvalues of augmented Hessian:
 -0.153052980  0.037135533  0.123364823
Length of the computed step             ....  1.112416543
Warning: the length of the step is outside the trust region - taking restricted step instead
The input lambda is                     ....    -0.153053
   iter:   1  x=   -0.210383  g=   20.015338 f(x)=     1.147471
   iter:   2  x=   -0.286784  g=    6.383167 f(x)=     0.487682
   iter:   3  x=   -0.374944  g=    2.219318 f(x)=     0.195655
   iter:   4  x=   -0.449629  g=    0.917254 f(x)=     0.068505
   iter:   5  x=   -0.483313  g=    0.510002 f(x)=     0.017179
   iter:   6  x=   -0.487921  g=    0.404691 f(x)=     0.001865
   iter:   7  x=   -0.487992  g=    0.392615 f(x)=     0.000028
   iter:   8  x=   -0.487992  g=    0.392432 f(x)=     0.000000
   iter:   9  x=   -0.487992  g=    0.392432 f(x)=     0.000000
The output lambda is                    ....    -0.487992 (9 iterations)
The final length of the internal step   ....  0.300000000
Converting the step to cartesian space:
 Initial RMS(Int)=    0.1732050808
Transforming coordinates:
 Iter   0:  RMS(Cart)=    0.0838596624 RMS(Int)=    0.1732010860
 Iter   1:  RMS(Cart)=    0.0001692270 RMS(Int)=    0.0001897460
 Iter   2:  RMS(Cart)=    0.0000130460 RMS(Int)=    0.0000147048
 Iter   3:  RMS(Cart)=    0.0000010105 RMS(Int)=    0.0000011383
 Iter   4:  RMS(Cart)=    0.0000000782 RMS(Int)=    0.0000000881
done
Storing new coordinates                 .... done

                                .--------------------.
          ----------------------|Geometry convergence|-------------------------
          Item                value                   Tolerance       Converged
          ---------------------------------------------------------------------
          Energy change      -0.0400424971            0.0000050000      NO
          RMS gradient        0.0794558709            0.0001000000      NO
          MAX gradient        0.0986565575            0.0003000000      NO
          RMS step            0.1732050808            0.0020000000      NO
          MAX step            0.2142061411            0.0040000000      NO
          ........................................................
          Max(Bonds)      0.1134      Max(Angles)    0.22
          Max(Dihed)        0.00      Max(Improp)    0.00
          ---------------------------------------------------------------------

The optimization has not yet converged - more geometry cycles are needed


    ---------------------------------------------------------------------------
                         Redundant Internal Coordinates
                            (Angstroem and degrees)

        Definition                    Value    dE/dq     Step     New-Value
    ----------------------------------------------------------------------------
     1. B(H   1,O   0)                1.5329  0.098657 -0.1134    1.4196   
     2. B(H   2,O   0)                1.5929  0.095902 -0.1111    1.4818   
     3. A(H   1,O   0,H   2)           93.17  0.003060   -0.22     92.95   
    ----------------------------------------------------------------------------

         *************************************************************
         *                GEOMETRY OPTIMIZATION CYCLE   3            *
         *************************************************************
---------------------------------
CARTESIAN COORDINATES (ANGSTROEM)
---------------------------------
  O     -3.225751    1.991373   -0.027684
  H     -1.990265    1.598658    0.550751
  H     -2.575494    2.501528   -1.257577

----------------------------
CARTESIAN COORDINATES (A.U.)
----------------------------
  NO LB      ZA    FRAG     MASS         X           Y           Z
   0 O     8.0000    0    15.999   -6.095786    3.763150   -0.052316
   1 H     1.0000    0     1.008   -3.761056    3.021026    1.040768
   2 H     1.0000    0     1.008   -4.866978    4.727203   -2.376475

--------------------------------
INTERNAL COORDINATES (ANGSTROEM)
--------------------------------
 O      0   0   0     0.000000000000     0.00000000     0.00000000
 H      1   0   0     1.419590828733     0.00000000     0.00000000
 H      1   2   0     1.481798788691    92.95317409     0.00000000

---------------------------
INTERNAL COORDINATES (A.U.)
---------------------------
 O      0   0   0     0.000000000000     0.00000000     0.00000000
 H      1   0   0     2.682637888532     0.00000000     0.00000000
 H      1   2   0     2.800193896203    92.95317409     0.00000000


Diagonalization of the overlap matrix:
Smallest eigenvalue                        ... 1.405e-01
Time for diagonalization                   ...    0.000 sec
Threshold for overlap eigenvalues          ... 1.000e-08
Number of eigenvalues below threshold      ... 0
Time for construction of square roots      ...    0.000 sec
Total time needed                          ...    0.000 sec

-------------------
DFT GRID GENERATION
-------------------

General Integration Accuracy     IntAcc      ...  4.340
Radial Grid Type                 RadialGrid  ... Gauss-Chebyshev
Angular Grid (max. acc.)         AngularGrid ... Lebedev-110
Angular grid pruning method      GridPruning ... 3 (G Style)
Weight generation scheme         WeightScheme... Becke
Basis function cutoff            BFCut       ...    1.0000e-11
Integration weight cutoff        WCut        ...    1.0000e-14
Grids for H and He will be reduced by one unit

# of grid points (after initial pruning)     ...   3304 (   0.0 sec)
# of grid points (after weights+screening)   ...   3298 (   0.0 sec)
nearest neighbour list constructed           ...    0.0 sec
Grid point re-assignment to atoms done       ...    0.0 sec
Grid point division into batches done        ...    0.0 sec
Reduced shell lists constructed in    0.0 sec

Total number of grid points                  ...     3298
Total number of batches                      ...       54
Average number of points per batch           ...       61
Average number of grid points per atom       ...     1099
Average number of shells per batch           ...     8.16 (90.71%)
Average number of basis functions per batch  ...    11.98 (92.17%)
Average number of large shells per batch     ...     7.84 (95.99%)
Average number of large basis fcns per batch ...    11.47 (95.75%)
Maximum spatial batch extension              ...  21.62, 21.59, 18.30 au
Average spatial batch extension              ...   5.97,  5.83,  5.26 au

Time for grid setup =    0.005 sec

--------------
SCF ITERATIONS
--------------
ITER       Energy         Delta-E        Max-DP      RMS-DP      [F,P]     Damp
               ***  Starting incremental Fock matrix formation  ***
  0    -76.2018509235   0.000000000000 0.00827715  0.00145066  0.0240846 0.7000
  1    -76.2023116278  -0.000460704366 0.00701219  0.00121941  0.0134951 0.7000
                               ***Turning on DIIS***
  2    -76.2025731936  -0.000261565783 0.01417220  0.00282399  0.0102388 0.0000
  3    -76.2032181937  -0.000645000065 0.00428927  0.00080362  0.0036510 0.0000
  4    -76.2032102614   0.000007932327 0.00202707  0.00031306  0.0049072 0.0000
                      *** Initiating the SOSCF procedure ***
                           *** Shutting down DIIS ***
                      *** Re-Reading the Fockian *** 
                      *** Removing any level shift *** 
ITER      Energy       Delta-E        Grad      Rot      Max-DP    RMS-DP
  5    -76.20323460  -0.0000243365  0.000468  0.000468  0.000919  0.000136
               *** Restarting incremental Fock matrix formation ***
  6    -76.20323909  -0.0000044930  0.000503  0.001790  0.001805  0.000302
  7    -76.20323448   0.0000046066  0.001214  0.000926  0.001080  0.000204
  8    -76.20323999  -0.0000055086  0.000022  0.000054  0.000052  0.000011
  9    -76.20324000  -0.0000000050  0.000006  0.000016  0.000011  0.000003
                 **** Energy Check signals convergence ****
              ***Rediagonalizing the Fockian in SOSCF/NRSCF***

               *****************************************************
               *                     SUCCESS                       *
               *           SCF CONVERGED AFTER  10 CYCLES          *
               *****************************************************

Setting up the final grid:

General Integration Accuracy     IntAcc      ...  4.670
Radial Grid Type                 RadialGrid  ... Gauss-Chebyshev
Angular Grid (max. acc.)         AngularGrid ... Lebedev-302
Angular grid pruning method      GridPruning ... 3 (G Style)
Weight generation scheme         WeightScheme... Becke
Basis function cutoff            BFCut       ...    1.0000e-11
Integration weight cutoff        WCut        ...    1.0000e-14
Grids for H and He will be reduced by one unit

# of grid points (after initial pruning)     ...  13000 (   0.0 sec)
# of grid points (after weights+screening)   ...  12950 (   0.0 sec)
nearest neighbour list constructed           ...    0.0 sec
Grid point re-assignment to atoms done       ...    0.0 sec
Grid point division into batches done        ...    0.0 sec
Reduced shell lists constructed in    0.0 sec

Total number of grid points                  ...    12950
Total number of batches                      ...      205
Average number of points per batch           ...       63
Average number of grid points per atom       ...     4317
Average number of shells per batch           ...     7.47 (82.96%)
Average number of basis functions per batch  ...    10.97 (84.39%)
Average number of large shells per batch     ...     6.97 (93.30%)
Average number of large basis fcns per batch ...    10.29 (93.76%)
Maximum spatial batch extension              ...  16.88, 17.01, 16.88 au
Average spatial batch extension              ...   3.40,  3.55,  3.26 au

Final grid set up in    0.0 sec
Final integration                            ... done (   0.0 sec)
Change in XC energy                          ...    -0.000160159
Integrated number of electrons               ...     9.999996941
Previous integrated no of electrons          ...     9.999996742
Total Energy       :          -76.20340016 Eh           -2073.59994 eV
  Last Energy change         ...   -2.3408e-10  Tolerance :   1.0000e-08
  Last MAX-Density change    ...    2.1485e-06  Tolerance :   1.0000e-07
             **** THE GBW FILE WAS UPDATED (frequencyWaterDFT.gbw) ****
             **** DENSITY FILE WAS UPDATED (frequencyWaterDFT.scfp) ****
             **** ENERGY FILE WAS UPDATED (frequencyWaterDFT.en.tmp) ****
             **** THE GBW FILE WAS UPDATED (frequencyWaterDFT.gbw) ****
             **** DENSITY FILE WAS UPDATED (frequencyWaterDFT.scfp) ****
Total SCF time: 0 days 0 hours 0 min 0 sec 

-------------------------   --------------------
FINAL SINGLE POINT ENERGY       -76.203400157140
-------------------------   --------------------

------------------------------------------------------------------------------
                         ORCA SCF GRADIENT CALCULATION
------------------------------------------------------------------------------

Gradient of the Kohn-Sham DFT energy:
Kohn-Sham wavefunction type      ... RKS
Hartree-Fock exchange scaling    ...    0.200
Number of operators              ...    1
Number of atoms                  ...    3
Basis set dimensions             ...   13
Integral neglect threshold       ... 2.5e-11
Integral primitive cutoff        ... 2.5e-12

Nuclear repulsion gradient       ... done
One Electron Gradient            ... done
Pre-screening matrix             ... done
Starting the two electron gradient:
Two electron gradient done
Exchange-correlation gradient    ... done

------------------
CARTESIAN GRADIENT
------------------

   1   O   :   -0.133257093   -0.006444536    0.042157279
   2   H   :    0.088962245   -0.028267346    0.041543633
   3   H   :    0.044294848    0.034711883   -0.083700911

Difference to translation invariance:
           :    0.0000000000   -0.0000000000    0.0000000000

Norm of the cartesian gradient     ...    0.2004699711
RMS gradient                       ...    0.0668233237
MAX gradient                       ...    0.1332570931

-------
TIMINGS
-------

Total SCF gradient time            ...        0.106 sec

One electron gradient       ....       0.000 sec  (  0.3%)
Prescreening matrices       ....       0.000 sec  (  0.3%)
Two electron gradient       ....       0.002 sec  (  1.9%)
XC gradient                 ....       0.038 sec  ( 35.6%)
------------------------------------------------------------------------------
                         ORCA GEOMETRY RELAXATION STEP
------------------------------------------------------------------------------

Reading the OPT-File                    .... done
Getting information on internals        .... done
Copying old internal coords+grads       .... done
Making the new internal coordinates     .... (new redundants).... done
Validating the new internal coordinates .... (new redundants).... done
Calculating the B-matrix                .... done
Calculating the G,G- and P matrices     .... done
Transforming gradient to internals      .... done
Projecting the internal gradient        .... done
Number of atoms                         ....   3
Number of internal coordinates          ....   3
Current Energy                          ....   -76.203400157 Eh
Current gradient norm                   ....     0.200469971 Eh/bohr
Maximum allowed component of the step   ....  0.300
Current trust radius                    ....  0.300
Updating the Hessian (BFGS)             .... done
Forming the augmented Hessian           .... done
Diagonalizing the augmented Hessian     .... done
Last element of RFO vector              ....  0.681369839
Lowest eigenvalues of augmented Hessian:
 -0.154134987  0.036566801  0.132261969
Length of the computed step             ....  1.074217350
Warning: the length of the step is outside the trust region - taking restricted step instead
The input lambda is                     ....    -0.154135
   iter:   1  x=   -0.215675  g=   17.288514 f(x)=     1.063943
   iter:   2  x=   -0.296983  g=    5.542824 f(x)=     0.450672
   iter:   3  x=   -0.389030  g=    1.948831 f(x)=     0.179384
   iter:   4  x=   -0.463924  g=    0.822786 f(x)=     0.061622
   iter:   5  x=   -0.495119  g=    0.472319 f(x)=     0.014734
   iter:   6  x=   -0.498807  g=    0.385177 f(x)=     0.001421
   iter:   7  x=   -0.498851  g=    0.376335 f(x)=     0.000016
   iter:   8  x=   -0.498851  g=    0.376232 f(x)=     0.000000
   iter:   9  x=   -0.498851  g=    0.376232 f(x)=     0.000000
The output lambda is                    ....    -0.498851 (9 iterations)
The final length of the internal step   ....  0.300000000
Converting the step to cartesian space:
 Initial RMS(Int)=    0.1732050808
Transforming coordinates:
 Iter   0:  RMS(Cart)=    0.0815735788 RMS(Int)=    0.1732018162
 Iter   1:  RMS(Cart)=    0.0001902564 RMS(Int)=    0.0002270563
 Iter   2:  RMS(Cart)=    0.0000160590 RMS(Int)=    0.0000190708
 Iter   3:  RMS(Cart)=    0.0000013467 RMS(Int)=    0.0000016000
 Iter   4:  RMS(Cart)=    0.0000001130 RMS(Int)=    0.0000001343
 Iter   5:  RMS(Cart)=    0.0000000095 RMS(Int)=    0.0000000113
done
Storing new coordinates                 .... done

                                .--------------------.
          ----------------------|Geometry convergence|-------------------------
          Item                value                   Tolerance       Converged
          ---------------------------------------------------------------------
          Energy change      -0.0422954700            0.0000050000      NO
          RMS gradient        0.0828892332            0.0001000000      NO
          MAX gradient        0.1021602324            0.0003000000      NO
          RMS step            0.1732050808            0.0020000000      NO
          MAX step            0.2121597649            0.0040000000      NO
          ........................................................
          Max(Bonds)      0.1123      Max(Angles)    0.25
          Max(Dihed)        0.00      Max(Improp)    0.00
          ---------------------------------------------------------------------

The optimization has not yet converged - more geometry cycles are needed


    ---------------------------------------------------------------------------
                         Redundant Internal Coordinates
                            (Angstroem and degrees)

        Definition                    Value    dE/dq     Step     New-Value
    ----------------------------------------------------------------------------
     1. B(H   1,O   0)                1.4196  0.102160 -0.1122    1.3074   
     2. B(H   2,O   0)                1.4818  0.100872 -0.1123    1.3695   
     3. A(H   1,O   0,H   2)           92.95 -0.000178    0.25     93.20   
    ----------------------------------------------------------------------------

         *************************************************************
         *                GEOMETRY OPTIMIZATION CYCLE   4            *
         *************************************************************
---------------------------------
CARTESIAN COORDINATES (ANGSTROEM)
---------------------------------
  O     -3.175273    1.993764   -0.043511
  H     -2.038343    1.631485    0.490689
  H     -2.577894    2.466311   -1.181688

----------------------------
CARTESIAN COORDINATES (A.U.)
----------------------------
  NO LB      ZA    FRAG     MASS         X           Y           Z
   0 O     8.0000    0    15.999   -6.000397    3.767668   -0.082224
   1 H     1.0000    0     1.008   -3.851910    3.083060    0.927268
   2 H     1.0000    0     1.008   -4.871513    4.660652   -2.233067

--------------------------------
INTERNAL COORDINATES (ANGSTROEM)
--------------------------------
 O      0   0   0     0.000000000000     0.00000000     0.00000000
 H      1   0   0     1.307373716261     0.00000000     0.00000000
 H      1   2   0     1.369528676530    93.20263061     0.00000000

---------------------------
INTERNAL COORDINATES (A.U.)
---------------------------
 O      0   0   0     0.000000000000     0.00000000     0.00000000
 H      1   0   0     2.470578278420     0.00000000     0.00000000
 H      1   2   0     2.588034131193    93.20263061     0.00000000


Diagonalization of the overlap matrix:
Smallest eigenvalue                        ... 1.254e-01
Time for diagonalization                   ...    0.000 sec
Threshold for overlap eigenvalues          ... 1.000e-08
Number of eigenvalues below threshold      ... 0
Time for construction of square roots      ...    0.000 sec
Total time needed                          ...    0.000 sec

-------------------
DFT GRID GENERATION
-------------------

General Integration Accuracy     IntAcc      ...  4.340
Radial Grid Type                 RadialGrid  ... Gauss-Chebyshev
Angular Grid (max. acc.)         AngularGrid ... Lebedev-110
Angular grid pruning method      GridPruning ... 3 (G Style)
Weight generation scheme         WeightScheme... Becke
Basis function cutoff            BFCut       ...    1.0000e-11
Integration weight cutoff        WCut        ...    1.0000e-14
Grids for H and He will be reduced by one unit

# of grid points (after initial pruning)     ...   3304 (   0.0 sec)
# of grid points (after weights+screening)   ...   3298 (   0.0 sec)
nearest neighbour list constructed           ...    0.0 sec
Grid point re-assignment to atoms done       ...    0.0 sec
Grid point division into batches done        ...    0.0 sec
Reduced shell lists constructed in    0.0 sec

Total number of grid points                  ...     3298
Total number of batches                      ...       53
Average number of points per batch           ...       62
Average number of grid points per atom       ...     1099
Average number of shells per batch           ...     8.15 (90.53%)
Average number of basis functions per batch  ...    11.96 (92.02%)
Average number of large shells per batch     ...     7.87 (96.59%)
Average number of large basis fcns per batch ...    11.54 (96.44%)
Maximum spatial batch extension              ...  21.59, 21.59, 18.30 au
Average spatial batch extension              ...   5.98,  5.85,  5.32 au

Time for grid setup =    0.005 sec

--------------
SCF ITERATIONS
--------------
ITER       Energy         Delta-E        Max-DP      RMS-DP      [F,P]     Damp
               ***  Starting incremental Fock matrix formation  ***
  0    -76.2445055203   0.000000000000 0.00902502  0.00170726  0.0287173 0.7000
  1    -76.2451946369  -0.000689116531 0.00778089  0.00146652  0.0175765 0.7000
                               ***Turning on DIIS***
  2    -76.2456183654  -0.000423728497 0.01653993  0.00346891  0.0130933 0.0000
  3    -76.2466371527  -0.001018787371 0.00531810  0.00099519  0.0047355 0.0000
  4    -76.2466312012   0.000005951568 0.00252827  0.00039104  0.0057962 0.0000
                      *** Initiating the SOSCF procedure ***
                           *** Shutting down DIIS ***
                      *** Re-Reading the Fockian *** 
                      *** Removing any level shift *** 
ITER      Energy       Delta-E        Grad      Rot      Max-DP    RMS-DP
  5    -76.24666497  -0.0000337677  0.000522  0.000522  0.001022  0.000156
               *** Restarting incremental Fock matrix formation ***
  6    -76.24666975  -0.0000047830  0.000439  0.001396  0.001447  0.000251
  7    -76.24666754   0.0000022073  0.000875  0.000636  0.000798  0.000154
  8    -76.24667047  -0.0000029263  0.000019  0.000038  0.000036  0.000008
                 **** Energy Check signals convergence ****
              ***Rediagonalizing the Fockian in SOSCF/NRSCF***

               *****************************************************
               *                     SUCCESS                       *
               *           SCF CONVERGED AFTER   9 CYCLES          *
               *****************************************************

Setting up the final grid:

General Integration Accuracy     IntAcc      ...  4.670
Radial Grid Type                 RadialGrid  ... Gauss-Chebyshev
Angular Grid (max. acc.)         AngularGrid ... Lebedev-302
Angular grid pruning method      GridPruning ... 3 (G Style)
Weight generation scheme         WeightScheme... Becke
Basis function cutoff            BFCut       ...    1.0000e-11
Integration weight cutoff        WCut        ...    1.0000e-14
Grids for H and He will be reduced by one unit

# of grid points (after initial pruning)     ...  13000 (   0.0 sec)
# of grid points (after weights+screening)   ...  12945 (   0.0 sec)
nearest neighbour list constructed           ...    0.0 sec
Grid point re-assignment to atoms done       ...    0.0 sec
Grid point division into batches done        ...    0.0 sec
Reduced shell lists constructed in    0.0 sec

Total number of grid points                  ...    12945
Total number of batches                      ...      204
Average number of points per batch           ...       63
Average number of grid points per atom       ...     4315
Average number of shells per batch           ...     7.50 (83.31%)
Average number of basis functions per batch  ...    10.97 (84.39%)
Average number of large shells per batch     ...     7.03 (93.82%)
Average number of large basis fcns per batch ...    10.35 (94.35%)
Maximum spatial batch extension              ...  16.97, 17.07, 16.88 au
Average spatial batch extension              ...   3.36,  3.51,  3.25 au

Final grid set up in    0.0 sec
Final integration                            ... done (   0.0 sec)
Change in XC energy                          ...    -0.000081294
Integrated number of electrons               ...    10.000009739
Previous integrated no of electrons          ...    10.001254293
Total Energy       :          -76.24675177 Eh           -2074.77960 eV
  Last Energy change         ...   -2.7920e-09  Tolerance :   1.0000e-08
  Last MAX-Density change    ...    6.8998e-06  Tolerance :   1.0000e-07
             **** THE GBW FILE WAS UPDATED (frequencyWaterDFT.gbw) ****
             **** DENSITY FILE WAS UPDATED (frequencyWaterDFT.scfp) ****
             **** ENERGY FILE WAS UPDATED (frequencyWaterDFT.en.tmp) ****
             **** THE GBW FILE WAS UPDATED (frequencyWaterDFT.gbw) ****
             **** DENSITY FILE WAS UPDATED (frequencyWaterDFT.scfp) ****
Total SCF time: 0 days 0 hours 0 min 0 sec 

-------------------------   --------------------
FINAL SINGLE POINT ENERGY       -76.246751767805
-------------------------   --------------------

------------------------------------------------------------------------------
                         ORCA SCF GRADIENT CALCULATION
------------------------------------------------------------------------------

Gradient of the Kohn-Sham DFT energy:
Kohn-Sham wavefunction type      ... RKS
Hartree-Fock exchange scaling    ...    0.200
Number of operators              ...    1
Number of atoms                  ...    3
Basis set dimensions             ...   13
Integral neglect threshold       ... 2.5e-11
Integral primitive cutoff        ... 2.5e-12

Nuclear repulsion gradient       ... done
One Electron Gradient            ... done
Pre-screening matrix             ... done
Starting the two electron gradient:
Two electron gradient done
Exchange-correlation gradient    ... done

------------------
CARTESIAN GRADIENT
------------------

   1   O   :   -0.135152229   -0.007655857    0.045069558
   2   H   :    0.088711781   -0.027304371    0.039649916
   3   H   :    0.046440447    0.034960228   -0.084719474

Difference to translation invariance:
           :   -0.0000000000    0.0000000000    0.0000000000

Norm of the cartesian gradient     ...    0.2027307297
RMS gradient                       ...    0.0675769099
MAX gradient                       ...    0.1351522287

-------
TIMINGS
-------

Total SCF gradient time            ...        0.105 sec

One electron gradient       ....       0.000 sec  (  0.3%)
Prescreening matrices       ....       0.000 sec  (  0.3%)
Two electron gradient       ....       0.002 sec  (  1.9%)
XC gradient                 ....       0.037 sec  ( 35.5%)
------------------------------------------------------------------------------
                         ORCA GEOMETRY RELAXATION STEP
------------------------------------------------------------------------------

Reading the OPT-File                    .... done
Getting information on internals        .... done
Copying old internal coords+grads       .... done
Making the new internal coordinates     .... (new redundants).... done
Validating the new internal coordinates .... (new redundants).... done
Calculating the B-matrix                .... done
Calculating the G,G- and P matrices     .... done
Transforming gradient to internals      .... done
Projecting the internal gradient        .... done
Number of atoms                         ....   3
Number of internal coordinates          ....   3
Current Energy                          ....   -76.246751768 Eh
Current gradient norm                   ....     0.202730730 Eh/bohr
Maximum allowed component of the step   ....  0.300
Current trust radius                    ....  0.300
Updating the Hessian (BFGS)             .... done
Forming the augmented Hessian           .... done
Diagonalizing the augmented Hessian     .... done
Last element of RFO vector              ....  0.692948314
Lowest eigenvalues of augmented Hessian:
 -0.147044236 -0.059655752  0.078336018
Length of the computed step             ....  1.040463262
Warning: the length of the step is outside the trust region - taking restricted step instead
The input lambda is                     ....    -0.147044
   iter:   1  x=   -0.205844  g=   16.880521 f(x)=     0.992564
   iter:   2  x=   -0.286402  g=    5.327914 f(x)=     0.429210
   iter:   3  x=   -0.377863  g=    1.873719 f(x)=     0.171371
   iter:   4  x=   -0.451121  g=    0.798026 f(x)=     0.058462
   iter:   5  x=   -0.480524  g=    0.464839 f(x)=     0.013668
   iter:   6  x=   -0.483768  g=    0.383665 f(x)=     0.001244
   iter:   7  x=   -0.483801  g=    0.375906 f(x)=     0.000013
   iter:   8  x=   -0.483801  g=    0.375827 f(x)=     0.000000
   iter:   9  x=   -0.483801  g=    0.375827 f(x)=    -0.000000
The output lambda is                    ....    -0.483801 (9 iterations)
The final length of the internal step   ....  0.300000000
Converting the step to cartesian space:
 Initial RMS(Int)=    0.1732050808
Transforming coordinates:
 Iter   0:  RMS(Cart)=    0.0781736071 RMS(Int)=    0.1731649378
 Iter   1:  RMS(Cart)=    0.0009184998 RMS(Int)=    0.0011757562
 Iter   2:  RMS(Cart)=    0.0000856516 RMS(Int)=    0.0001078021
 Iter   3:  RMS(Cart)=    0.0000076758 RMS(Int)=    0.0000096715
 Iter   4:  RMS(Cart)=    0.0000006900 RMS(Int)=    0.0000008693
 Iter   5:  RMS(Cart)=    0.0000000620 RMS(Int)=    0.0000000781
done
Storing new coordinates                 .... done

                                .--------------------.
          ----------------------|Geometry convergence|-------------------------
          Item                value                   Tolerance       Converged
          ---------------------------------------------------------------------
          Energy change      -0.0433516107            0.0000050000      NO
          RMS gradient        0.0831853668            0.0001000000      NO
          MAX gradient        0.1027400737            0.0003000000      NO
          RMS step            0.1732050808            0.0020000000      NO
          MAX step            0.2182347397            0.0040000000      NO
          ........................................................
          Max(Bonds)      0.1155      Max(Angles)    1.17
          Max(Dihed)        0.00      Max(Improp)    0.00
          ---------------------------------------------------------------------

The optimization has not yet converged - more geometry cycles are needed


    ---------------------------------------------------------------------------
                         Redundant Internal Coordinates
                            (Angstroem and degrees)

        Definition                    Value    dE/dq     Step     New-Value
    ----------------------------------------------------------------------------
     1. B(H   1,O   0)                1.3074  0.100901 -0.1084    1.1990   
     2. B(H   2,O   0)                1.3695  0.102740 -0.1155    1.2540   
     3. A(H   1,O   0,H   2)           93.20 -0.004788    1.17     94.37   
    ----------------------------------------------------------------------------

         *************************************************************
         *                GEOMETRY OPTIMIZATION CYCLE   5            *
         *************************************************************
---------------------------------
CARTESIAN COORDINATES (ANGSTROEM)
---------------------------------
  O     -3.121397    1.997475   -0.062884
  H     -2.085196    1.660901    0.437668
  H     -2.584917    2.433184   -1.109294

----------------------------
CARTESIAN COORDINATES (A.U.)
----------------------------
  NO LB      ZA    FRAG     MASS         X           Y           Z
   0 O     8.0000    0    15.999   -5.898585    3.774680   -0.118834
   1 H     1.0000    0     1.008   -3.940449    3.138648    0.827073
   2 H     1.0000    0     1.008   -4.884786    4.598052   -2.096262

--------------------------------
INTERNAL COORDINATES (ANGSTROEM)
--------------------------------
 O      0   0   0     0.000000000000     0.00000000     0.00000000
 H      1   0   0     1.198977002169     0.00000000     0.00000000
 H      1   2   0     1.254043825491    94.36861124     0.00000000

---------------------------
INTERNAL COORDINATES (A.U.)
---------------------------
 O      0   0   0     0.000000000000     0.00000000     0.00000000
 H      1   0   0     2.265738174970     0.00000000     0.00000000
 H      1   2   0     2.369799390113    94.36861124     0.00000000


Diagonalization of the overlap matrix:
Smallest eigenvalue                        ... 1.081e-01
Time for diagonalization                   ...    0.000 sec
Threshold for overlap eigenvalues          ... 1.000e-08
Number of eigenvalues below threshold      ... 0
Time for construction of square roots      ...    0.000 sec
Total time needed                          ...    0.000 sec

-------------------
DFT GRID GENERATION
-------------------

General Integration Accuracy     IntAcc      ...  4.340
Radial Grid Type                 RadialGrid  ... Gauss-Chebyshev
Angular Grid (max. acc.)         AngularGrid ... Lebedev-110
Angular grid pruning method      GridPruning ... 3 (G Style)
Weight generation scheme         WeightScheme... Becke
Basis function cutoff            BFCut       ...    1.0000e-11
Integration weight cutoff        WCut        ...    1.0000e-14
Grids for H and He will be reduced by one unit

# of grid points (after initial pruning)     ...   3304 (   0.0 sec)
# of grid points (after weights+screening)   ...   3297 (   0.0 sec)
nearest neighbour list constructed           ...    0.0 sec
Grid point re-assignment to atoms done       ...    0.0 sec
Grid point division into batches done        ...    0.0 sec
Reduced shell lists constructed in    0.0 sec

Total number of grid points                  ...     3297
Total number of batches                      ...       53
Average number of points per batch           ...       62
Average number of grid points per atom       ...     1099
Average number of shells per batch           ...     8.26 (91.77%)
Average number of basis functions per batch  ...    12.07 (92.88%)
Average number of large shells per batch     ...     7.94 (96.19%)
Average number of large basis fcns per batch ...    11.61 (96.17%)
Maximum spatial batch extension              ...  21.59, 21.59, 18.30 au
Average spatial batch extension              ...   5.97,  5.76,  5.31 au

Time for grid setup =    0.005 sec

--------------
SCF ITERATIONS
--------------
ITER       Energy         Delta-E        Max-DP      RMS-DP      [F,P]     Damp
               ***  Starting incremental Fock matrix formation  ***
  0    -76.2856406350   0.000000000000 0.01008844  0.00201033  0.0338549 0.7000
  1    -76.2866706140  -0.001029979008 0.00867401  0.00174093  0.0215179 0.7000
                               ***Turning on DIIS***
  2    -76.2873331021  -0.000662488081 0.01887924  0.00416854  0.0157925 0.0000
  3    -76.2889058996  -0.001572797550 0.00617309  0.00117356  0.0060098 0.0000
  4    -76.2889087987  -0.000002899072 0.00312177  0.00049172  0.0066183 0.0000
                      *** Initiating the SOSCF procedure ***
                           *** Shutting down DIIS ***
                      *** Re-Reading the Fockian *** 
                      *** Removing any level shift *** 
ITER      Energy       Delta-E        Grad      Rot      Max-DP    RMS-DP
  5    -76.28895111  -0.0000423109  0.000520  0.000520  0.000974  0.000156
               *** Restarting incremental Fock matrix formation ***
  6    -76.28895450  -0.0000033914  0.000321  0.000921  0.000953  0.000175
  7    -76.28895402   0.0000004827  0.000488  0.000358  0.000474  0.000087
  8    -76.28895492  -0.0000008985  0.000017  0.000022  0.000032  0.000007
[...]
Average number of grid points per atom       ...     4304
Average number of shells per batch           ...     7.62 (84.69%)
Average number of basis functions per batch  ...    11.08 (85.26%)
Average number of large shells per batch     ...     7.16 (93.89%)
Average number of large basis fcns per batch ...    10.49 (94.65%)
Maximum spatial batch extension              ...  17.14, 17.16, 16.15 au
Average spatial batch extension              ...   3.37,  3.48,  3.19 au

Final grid set up in    0.0 sec
Final integration                            ... done (   0.0 sec)
Change in XC energy                          ...     0.000470456
Integrated number of electrons               ...    10.000012779
Previous integrated no of electrons          ...    10.003073001

----------------
TOTAL SCF ENERGY
----------------

Total Energy       :          -76.34898188 Eh           -2077.56142 eV

Components:
Nuclear Repulsion  :            9.00854050 Eh             245.13485 eV
Electronic Energy  :          -85.35752237 Eh           -2322.69627 eV
One Electron Energy:         -122.74462339 Eh           -3340.05101 eV
Two Electron Energy:           37.38710102 Eh            1017.35474 eV

Virial components:
Potential Energy   :         -152.34561568 Eh           -4145.53496 eV
Kinetic Energy     :           75.99663380 Eh            2067.97354 eV
Virial Ratio       :            2.00463636


DFT components:
N(Alpha)           :        5.000006389347 electrons
N(Beta)            :        5.000006389347 electrons
N(Total)           :       10.000012778693 electrons
E(X)               :       -7.117809423578 Eh       
E(C)               :       -0.401003228503 Eh       
E(XC)              :       -7.518812652081 Eh       
DFET-embed. en.    :        0.000000000000 Eh       

---------------
SCF CONVERGENCE
---------------

  Last Energy change         ...   -1.0608e-10  Tolerance :   1.0000e-08
  Last MAX-Density change    ...    1.3591e-06  Tolerance :   1.0000e-07
  Last RMS-Density change    ...    3.7469e-07  Tolerance :   5.0000e-09
  Last Orbital Gradient      ...    1.0352e-06  Tolerance :   1.0000e-05
  Last Orbital Rotation      ...    1.7796e-06  Tolerance :   1.0000e-05

             **** THE GBW FILE WAS UPDATED (frequencyWaterDFT.gbw) ****
             **** DENSITY FILE WAS UPDATED (frequencyWaterDFT.scfp) ****
             **** ENERGY FILE WAS UPDATED (frequencyWaterDFT.en.tmp) ****
             **** THE GBW FILE WAS UPDATED (frequencyWaterDFT.gbw) ****
             **** DENSITY FILE WAS UPDATED (frequencyWaterDFT.scfp) ****
----------------
ORBITAL ENERGIES
----------------

  NO   OCC          E(Eh)            E(eV) 
   0   2.0000     -19.130442      -520.5658 
   1   2.0000      -1.002899       -27.2903 
   2   2.0000      -0.525922       -14.3111 
   3   2.0000      -0.345082        -9.3902 
   4   2.0000      -0.286543        -7.7972 
   5   0.0000       0.055806         1.5186 
   6   0.0000       0.145746         3.9659 
   7   0.0000       0.825374        22.4596 
   8   0.0000       0.853982        23.2380 
   9   0.0000       0.892174        24.2773 
  10   0.0000       0.948057        25.7979 
  11   0.0000       1.073365        29.2077 
  12   0.0000       1.411288        38.4031 

                    ********************************
                    * MULLIKEN POPULATION ANALYSIS *
                    ********************************

-----------------------
MULLIKEN ATOMIC CHARGES
-----------------------
   0 O :   -0.718291
   1 H :    0.359053
   2 H :    0.359238
Sum of atomic charges:    0.0000000

--------------------------------
MULLIKEN REDUCED ORBITAL CHARGES
--------------------------------
  0 O s       :     3.896680  s :     3.896680
      pz      :     1.385302  p :     4.821611
      px      :     1.582620
      py      :     1.853689
  1 H s       :     0.640947  s :     0.640947
  2 H s       :     0.640762  s :     0.640762


                     *******************************
                     * LOEWDIN POPULATION ANALYSIS *
                     *******************************

----------------------
LOEWDIN ATOMIC CHARGES
----------------------
   0 O :   -0.558651
   1 H :    0.279316
   2 H :    0.279335

-------------------------------
LOEWDIN REDUCED ORBITAL CHARGES
-------------------------------
  0 O s       :     3.655559  s :     3.655559
      pz      :     1.429057  p :     4.903092
      px      :     1.609810
      py      :     1.864225
  1 H s       :     0.720684  s :     0.720684
  2 H s       :     0.720665  s :     0.720665


                      *****************************
                      * MAYER POPULATION ANALYSIS *
                      *****************************

  NA   - Mulliken gross atomic population
  ZA   - Total nuclear charge
  QA   - Mulliken gross atomic charge
  VA   - Mayer's total valence
  BVA  - Mayer's bonded valence
  FA   - Mayer's free valence

  ATOM       NA         ZA         QA         VA         BVA        FA
  0 O      8.7183     8.0000    -0.7183     1.6467     1.6467     0.0000
  1 H      0.6409     1.0000     0.3591     0.8279     0.8279     0.0000
  2 H      0.6408     1.0000     0.3592     0.8276     0.8276     0.0000

  Mayer bond orders larger than 0.100000
B(  0-O ,  1-H ) :   0.8235 B(  0-O ,  2-H ) :   0.8232 

-------
TIMINGS
-------

Total SCF time: 0 days 0 hours 0 min 0 sec 

Total time                  ....       0.322 sec
Sum of individual times     ....       0.202 sec  ( 62.7%)

Fock matrix formation       ....       0.158 sec  ( 48.9%)
  XC integration            ....       0.018 sec  ( 11.2% of F)
    Basis function eval.    ....       0.005 sec  ( 28.9% of XC)
    Density eval.           ....       0.003 sec  ( 19.1% of XC)
    XC-Functional eval.     ....       0.006 sec  ( 31.6% of XC)
    XC-Potential eval.      ....       0.001 sec  (  7.2% of XC)
Diagonalization             ....       0.000 sec  (  0.0%)
Density matrix formation    ....       0.000 sec  (  0.0%)
Population analysis         ....       0.000 sec  (  0.1%)
Initial guess               ....       0.001 sec  (  0.3%)
Orbital Transformation      ....       0.000 sec  (  0.0%)
Orbital Orthonormalization  ....       0.000 sec  (  0.0%)
DIIS solution               ....       0.000 sec  (  0.0%)
SOSCF solution              ....       0.000 sec  (  0.0%)
Grid generation             ....       0.043 sec  ( 13.4%)

-------------------------   --------------------
FINAL SINGLE POINT ENERGY       -76.348981878066
-------------------------   --------------------

                                *** OPTIMIZATION RUN DONE ***

                            ***************************************
                            *     ORCA property calculations      *
                            ***************************************

                                    ---------------------
                                    Active property flags
                                    ---------------------
   (+) Dipole Moment


------------------------------------------------------------------------------
                       ORCA ELECTRIC PROPERTIES CALCULATION
------------------------------------------------------------------------------

Dipole Moment Calculation                       ... on
Quadrupole Moment Calculation                   ... off
Polarizability Calculation                      ... off
GBWName                                         ... frequencyWaterDFT.gbw
Electron density file                           ... frequencyWaterDFT.scfp
The origin for moment calculation is the CENTER OF MASS  = (-5.480160,  3.811407 -0.286218)

-------------
DIPOLE MOMENT
-------------
                                X             Y             Z
Electronic contribution:     -0.00709      -0.00054       0.00242
Nuclear contribution   :      0.90866       0.04084      -0.28020
                        -----------------------------------------
Total Dipole Moment    :      0.90156       0.04031      -0.27778
                        -----------------------------------------
Magnitude (a.u.)       :      0.94425
Magnitude (Debye)      :      2.40009



--------------------
Rotational spectrum 
--------------------
 
Rotational constants in cm-1:    28.805694    13.359526     9.126726 
Rotational constants in MHz : 863572.975846 400508.507811 273612.364720 

 Dipole components along the rotational axes: 
x,y,z [a.u.] :     0.000595    -0.944248     0.000097 
x,y,z [Debye]:     0.001513    -2.400088     0.000245 

 

-------------------------------------------------------------------------------
                               ORCA SCF HESSIAN
-------------------------------------------------------------------------------

Hessian of the Kohn-Sham DFT energy:
Kohn-Sham wavefunction type                      ... RKS
Hartree-Fock exchange scaling                    ...    0.200
Number of operators                              ...    1
Number of atoms                                  ...    3
Basis set dimensions                             ...   13
Integral neglect threshold                       ... 2.5e-11
Integral primitive cutoff                        ... 2.5e-12

Setting up DFT Hessian calculations              ... 
Electron density on the grid                     ... found on disk
Electron density on the final grid               ... found on disk
Building xc-kernel on the grid                   ... done   (      0.0 sec)
Building xc-kernel on the final grid             ... done   (      0.0 sec)
                                                     done   (      0.0 sec)

Nuclear repulsion Hessian                        ... done   (      0.0 sec)

----------------------------------------------
Forming right-hand sides of CP-SCF equations     ...
----------------------------------------------
One electron integral derivatives                ... done   (      0.1 sec)
Transforming the overlap derivative matrices     ... done   (      0.0 sec)
Making the Q(x) pseudodensities                  ... done   (      0.0 sec)
Adding the E*S(x)*S(y) terms to the Hessian      ... done   (      0.0 sec)
Calculating energy weighted overlap derivatives  ... done   (      0.0 sec)
Two electron integral derivatives                ... done   (      0.1 sec)
Exchange-correlation integral derivatives        ... done   (      0.1 sec)
tr(F(y)Q(x)) contribution to the Hessian         ... done   (      0.0 sec)
Response fock operator R(S(x))                   ... done   (      0.1 sec)
XC Response fock operator R(S(x))                ... done   (      0.0 sec)
tr(F(y)S(x)) contribution to the Hessian         ... done   (      0.0 sec)
Transforming and finalizing RHSs                 ... done   (      0.0 sec)

----------------------------------------------
Solving the CP-SCF equations                     ...
----------------------------------------------
     CP-SCF ITERATION   0: 
     CP-SCF ITERATION   1:      0.000328899284
     CP-SCF ITERATION   2:      0.000005599990
     CP-SCF ITERATION   3:      0.000000038035
     CP-SCF ITERATION   4:      0.000000005835

                                                 ... done   (      0.3 sec)
Forming perturbed density Hessian contributions  ... done   (      0.0 sec)
Making the perturbed densities                   ... done   (      0.0 sec)
2nd integral derivative contribs                 ... done   (      0.1 sec)
Exchange-correlation Hessian                     ... done   (      0.2 sec)
Dipol derivatives                                ... done   (      0.1 sec)

Total SCF Hessian time: 0 days 0 hours 0 min 1 sec 

Writing the Hessian file to the disk             ... done


Maximum memory used throughout the entire calculation: 73.7 MB

-----------------------
VIBRATIONAL FREQUENCIES
-----------------------

Scaling factor for frequencies =  1.000000000  (already applied!)

   0:         0.00 cm**-1
   1:         0.00 cm**-1
   2:         0.00 cm**-1
   3:         0.00 cm**-1
   4:         0.00 cm**-1
   5:         0.00 cm**-1
   6:      1618.36 cm**-1
   7:      3613.28 cm**-1
   8:      3778.10 cm**-1


------------
NORMAL MODES
------------

These modes are the Cartesian displacements weighted by the diagonal matrix
M(i,i)=1/sqrt(m[i]) where m[i] is the mass of the displaced atom
Thus, these vectors are normalized but *not* orthogonal

                  0          1          2          3          4          5    
      0       0.000000   0.000000   0.000000   0.000000   0.000000   0.000000
      1       0.000000   0.000000   0.000000   0.000000   0.000000   0.000000
      2       0.000000   0.000000   0.000000   0.000000   0.000000   0.000000
      3       0.000000   0.000000   0.000000   0.000000   0.000000   0.000000
      4       0.000000   0.000000   0.000000   0.000000   0.000000   0.000000
      5       0.000000   0.000000   0.000000   0.000000   0.000000   0.000000
      6       0.000000   0.000000   0.000000   0.000000   0.000000   0.000000
      7       0.000000   0.000000   0.000000   0.000000   0.000000   0.000000
      8       0.000000   0.000000   0.000000   0.000000   0.000000   0.000000
                   6          7          8    
      0       0.071454  -0.042124  -0.020135
      1       0.003205  -0.001684   0.030902
      2      -0.022021   0.012542  -0.061870
      3      -0.459235   0.511257   0.552965
      4      -0.188423  -0.249882  -0.225700
      5       0.500733   0.426373   0.365766
      6      -0.674890   0.157333  -0.233386
      7       0.137551   0.276614  -0.264773
      8      -0.151223  -0.625442   0.616233


-----------
IR SPECTRUM
-----------

 Mode    freq (cm**-1)   T**2         TX         TY         TZ
-------------------------------------------------------------------
   6:      1618.36   68.320035  ( -7.891177  -0.357126   2.433479)
   7:      3613.28    4.431171  ( -2.005276  -0.093671   0.633454)
   8:      3778.10    8.812412  (  0.851819  -1.276460   2.541155)

The first frequency considered to be a vibration is 6
The total number of vibrations considered is 3


--------------------------
THERMOCHEMISTRY AT 298.15K
--------------------------

Temperature         ... 298.15 K
Pressure            ... 1.00 atm
Total Mass          ... 18.02 AMU

Throughout the following assumptions are being made:
  (1) The electronic state is orbitally nondegenerate
  (2) There are no thermally accessible electronically excited states
  (3) Hindered rotations indicated by low frequency modes are not
      treated as such but are treated as vibrations and this may
      cause some error
  (4) All equations used are the standard statistical mechanics
      equations for an ideal gas
  (5) All vibrations are strictly harmonic

freq.    1618.36  E(vib)   ...       0.00 
freq.    3613.28  E(vib)   ...       0.00 
freq.    3778.10  E(vib)   ...       0.00 

------------
INNER ENERGY
------------

The inner energy is: U= E(el) + E(ZPE) + E(vib) + E(rot) + E(trans)
    E(el)   - is the total energy from the electronic structure calculation
              = E(kin-el) + E(nuc-el) + E(el-el) + E(nuc-nuc)
    E(ZPE)  - the the zero temperature vibrational energy from the frequency calculation
    E(vib)  - the the finite temperature correction to E(ZPE) due to population
              of excited vibrational states
    E(rot)  - is the rotational thermal energy
    E(trans)- is the translational thermal energy

Summary of contributions to the inner energy U:
Electronic energy                ...    -76.34898188 Eh
Zero point energy                ...      0.02052571 Eh      12.88 kcal/mol
Thermal vibrational correction   ...      0.00000299 Eh       0.00 kcal/mol
Thermal rotational correction    ...      0.00141627 Eh       0.89 kcal/mol
Thermal translational correction ...      0.00141627 Eh       0.89 kcal/mol
-----------------------------------------------------------------------
Total thermal energy                    -76.32562063 Eh


Summary of corrections to the electronic energy:
(perhaps to be used in another calculation)
Total thermal correction                  0.00283554 Eh       1.78 kcal/mol
Non-thermal (ZPE) correction              0.02052571 Eh      12.88 kcal/mol
-----------------------------------------------------------------------
Total correction                          0.02336125 Eh      14.66 kcal/mol


--------
ENTHALPY
--------

The enthalpy is H = U + kB*T
                kB is Boltzmann's constant
Total free energy                 ...    -76.32562063 Eh 
Thermal Enthalpy correction       ...      0.00094421 Eh       0.59 kcal/mol
-----------------------------------------------------------------------
Total Enthalpy                    ...    -76.32467642 Eh


Note: Rotational entropy computed according to Herzberg 
Infrared and Raman Spectra, Chapter V,1, Van Nostrand Reinhold, 1945 
Point Group:  Cs, Symmetry Number:   1  
Rotational constants in cm-1:    28.805694    13.359526     9.126726 

Vibrational entropy computed according to the QRRHO of S. Grimme
Chem.Eur.J. 2012 18 9955


-------
ENTROPY
-------

The entropy contributions are T*S = T*(S(el)+S(vib)+S(rot)+S(trans))
     S(el)   - electronic entropy
     S(vib)  - vibrational entropy
     S(rot)  - rotational entropy
     S(trans)- translational entropy
The entropies will be listed as mutliplied by the temperature to get
units of energy

Electronic entropy                ...      0.00000000 Eh      0.00 kcal/mol
Vibrational entropy               ...      0.00000338 Eh      0.00 kcal/mol
Rotational entropy                ...      0.00565666 Eh      3.55 kcal/mol
Translational entropy             ...      0.01644380 Eh     10.32 kcal/mol
-----------------------------------------------------------------------
Final entropy term                ...      0.02210384 Eh     13.87 kcal/mol

In case the symmetry of your molecule has not been determined correctly
or in case you have a reason to use a different symmetry number we print 
out the resulting rotational entropy values for sn=1,12 :
 --------------------------------------------------------
|  sn= 1 | S(rot)=       0.00565666 Eh      3.55 kcal/mol|
|  sn= 2 | S(rot)=       0.00500220 Eh      3.14 kcal/mol|
|  sn= 3 | S(rot)=       0.00461937 Eh      2.90 kcal/mol|
|  sn= 4 | S(rot)=       0.00434775 Eh      2.73 kcal/mol|
|  sn= 5 | S(rot)=       0.00413706 Eh      2.60 kcal/mol|
|  sn= 6 | S(rot)=       0.00396491 Eh      2.49 kcal/mol|
|  sn= 7 | S(rot)=       0.00381937 Eh      2.40 kcal/mol|
|  sn= 8 | S(rot)=       0.00369329 Eh      2.32 kcal/mol|
|  sn= 9 | S(rot)=       0.00358208 Eh      2.25 kcal/mol|
|  sn=10 | S(rot)=       0.00348260 Eh      2.19 kcal/mol|
|  sn=11 | S(rot)=       0.00339261 Eh      2.13 kcal/mol|
|  sn=12 | S(rot)=       0.00331046 Eh      2.08 kcal/mol|
 --------------------------------------------------------


-------------------
GIBBS FREE ENERGY
-------------------

The Gibbs free energy is G = H - T*S

Total enthalpy                    ...    -76.32467642 Eh 
Total entropy correction          ...     -0.02210384 Eh    -13.87 kcal/mol
-----------------------------------------------------------------------
Final Gibbs free energy         ...    -76.34678026 Eh

For completeness - the Gibbs free energy minus the electronic energy
G-E(el)                           ...      0.00220162 Eh      1.38 kcal/mol


Timings for individual modules:

Sum of individual times         ...       18.954 sec (=   0.316 min)
GTO integral calculation        ...        2.509 sec (=   0.042 min)  13.2 %
SCF iterations                  ...       12.969 sec (=   0.216 min)  68.4 %
SCF Gradient evaluation         ...        1.877 sec (=   0.031 min)   9.9 %
Geometry relaxation             ...        0.413 sec (=   0.007 min)   2.2 %
Analytical frequency calculation...        1.185 sec (=   0.020 min)   6.3 %
                             ****ORCA TERMINATED NORMALLY****
TOTAL RUN TIME: 0 days 0 hours 0 minutes 19 seconds 183 msec
