
                                 *****************
                                 * O   R   C   A *
                                 *****************

           --- An Ab Initio, DFT and Semiempirical electronic structure package ---

                  #######################################################
                  #                        -***-                        #
                  #          Department of theory and spectroscopy      #
                  #               Directorship: Frank Neese             #
                  #        Max Planck Institute fuer Kohlenforschung    #
                  #                Kaiser Wilhelm Platz 1               #
                  #                 D-45470 Muelheim/Ruhr               #
                  #                      Germany                        #
                  #                                                     #
                  #                  All rights reserved                #
                  #                        -***-                        #
                  #######################################################


                         Program Version 4.2.1 -  RELEASE  -


 With contributions from (in alphabetic order):
   Daniel Aravena         : Magnetic Suceptibility
   Michael Atanasov       : Ab Initio Ligand Field Theory (pilot matlab implementation)
   Alexander A. Auer      : GIAO ZORA, VPT2
   Ute Becker             : Parallelization
   Giovanni Bistoni       : ED, misc. LED, open-shell LED, HFLD
   Martin Brehm           : Molecular dynamics
   Dmytro Bykov           : SCF Hessian
   Vijay G. Chilkuri      : MRCI spin determinant printing, contributions to CSF-ICE
   Dipayan Datta          : RHF DLPNO-CCSD density
   Achintya Kumar Dutta   : EOM-CC, STEOM-CC
   Dmitry Ganyushin       : Spin-Orbit,Spin-Spin,Magnetic field MRCI
   Miquel Garcia          : C-PCM Hessian, Gaussian charge scheme
   Yang Guo               : DLPNO-NEVPT2, CIM, IAO-localization
   Andreas Hansen         : Spin unrestricted coupled pair/coupled cluster methods
   Benjamin Helmich-Paris : CASSCF linear response (MC-RPA)
   Lee Huntington         : MR-EOM, pCC
   Robert Izsak           : Overlap fitted RIJCOSX, COSX-SCS-MP3, EOM
   Christian Kollmar      : KDIIS, OOCD, Brueckner-CCSD(T), CCSD density
   Simone Kossmann        : Meta GGA functionals, TD-DFT gradient, OOMP2, MP2 Hessian
   Martin Krupicka        : AUTO-CI
   Lucas Lang             : DCDCAS
   Dagmar Lenk            : GEPOL surface, SMD
   Dimitrios Liakos       : Extrapolation schemes; Compound Job, initial MDCI parallelization
   Dimitrios Manganas     : Further ROCIS development; embedding schemes
   Dimitrios Pantazis     : SARC Basis sets
   Taras Petrenko         : DFT Hessian,TD-DFT gradient, ASA, ECA, R-Raman, ABS, FL, XAS/XES, NRVS
   Peter Pinski           : DLPNO-MP2, DLPNO-MP2 Gradient
   Christoph Reimann      : Effective Core Potentials
   Marius Retegan         : Local ZFS, SOC
   Christoph Riplinger    : Optimizer, TS searches, QM/MM, DLPNO-CCSD(T), (RO)-DLPNO pert. Triples
   Tobias Risthaus        : Range-separated hybrids, TD-DFT gradient, RPA, STAB
   Michael Roemelt        : Original ROCIS implementation
   Masaaki Saitow         : Open-shell DLPNO-CCSD energy and density
   Barbara Sandhoefer     : DKH picture change effects
   Avijit Sen             : IP-ROCIS
   Kantharuban Sivalingam : CASSCF convergence, NEVPT2, FIC-MRCI
   Bernardo de Souza      : ESD, SOC TD-DFT
   Georgi Stoychev        : AutoAux, RI-MP2 NMR
   Willem Van den Heuvel  : Paramagnetic NMR
   Boris Wezisla          : Elementary symmetry handling
   Frank Wennmohs         : Technical directorship


 We gratefully acknowledge several colleagues who have allowed us to
 interface, adapt or use parts of their codes:
   Stefan Grimme, W. Hujo, H. Kruse,             : VdW corrections, initial TS optimization,
                  C. Bannwarth                     DFT functionals, gCP, sTDA/sTD-DF
   Ed Valeev, F. Pavosevic, A. Kumar             : LibInt (2-el integral package), F12 methods
   Garnet Chan, S. Sharma, J. Yang, R. Olivares  : DMRG
   Ulf Ekstrom                                   : XCFun DFT Library
   Mihaly Kallay                                 : mrcc  (arbitrary order and MRCC methods)
   Andreas Klamt, Michael Diedenhofen            : otool_cosmo (COSMO solvation model)
   Jiri Pittner, Ondrej Demel                    : Mk-CCSD
   Frank Weinhold                                : gennbo (NPA and NBO analysis)
   Christopher J. Cramer and Donald G. Truhlar   : smd solvation model
   Lars Goerigk                                  : TD-DFT with DH, B97 family of functionals
   V. Asgeirsson, H. Jonsson                     : NEB implementation
   FAccTs GmbH                                   : IRC, NEB, NEB-TS, Multilevel, MM, QM/MM, CI optimization
   S Lehtola, MJT Oliveira, MAL Marques          : LibXC Library


 Your calculation uses the libint2 library for the computation of 2-el integrals
 For citations please refer to: http://libint.valeyev.net

 Your ORCA version has been built with support for libXC version: 4.2.3
 For citations please refer to: https://tddft.org/programs/libxc/

 This ORCA versions uses:
   CBLAS   interface :  Fast vector & matrix operations
   LAPACKE interface :  Fast linear algebra routines
   SCALAPACK package :  Parallel linear algebra routines




***************************************
The coordinates will be read from file: water.xyz
***************************************


----- Orbital basis set information -----
Your calculation utilizes the basis: 3-21G
   H-Ne       : J. S. Binkley, J. A. Pople and W. J. Hehre, J. Am. Chem. Soc. 102 939 (1980).
   Na-Ar      : M. S. Gordon, J. S. Binkley, J. A. Pople, W. J. Pietro and W.J. Hehre, J. Am. Chem. Soc. 104, 2797 (1983).
   K-Ca, Ga-Kr: K. D. Dobbs and W. J. Hehre, J. Comput. Chem. 7, 359 (1986).
   Sc-Zn      : K. D. Dobbs and W. J. Hehre, J. Comput. Chem. 8, 861 (1987).
   Y-Cd       : K. D. Dobbs and W. J. Hehre, J. Comput. Chem. 8, 880 (1987).

================================================================================
                                        WARNINGS
                       Please study these warnings very carefully!
================================================================================


WARNING: Geometry Optimization
  ===> : Switching off AutoStart
         For restart on a previous wavefunction, please use MOREAD

INFO   : the flag for use of LIBINT has been found!

================================================================================
                                       INPUT FILE
================================================================================
NAME = pes.inp
|  1> ! HF 3-21G Opt
|  2> %geom Scan
|  3> B 1 0 = 0.5, 10.0, 50
|  4> # Scan the bond between atom 0 and atom 1
|  5> # from distance 0.5  ̊A to 10.0  ̊A in 50 points.
|  6> end
|  7> end
|  8> *xyzfile 0 1 water.xyz
|  9> 
| 10>  
| 11> 
| 12>                          ****END OF INPUT****
================================================================================

                       ******************************
                       *    Relaxed Surface Scan    *
                       ******************************

                      Bond (  1,   0):   range=   0.50000000 ..  10.00000000  steps =   50

There is 1 parameter to be scanned.
There will be   50 constrained geometry optimizations.


         *************************************************************
         *               RELAXED SURFACE SCAN STEP   1               *
         *                                                           *
         *                 Bond (  1,   0)  :   0.50000000           *
         *************************************************************

Geometry optimization settings:
Update method            Update   .... BFGS
Choice of coordinates    CoordSys .... Z-matrix Internals
Initial Hessian          InHess   .... Almoef's Model

Convergence Tolerances:
Energy Change            TolE     ....  5.0000e-06 Eh
Max. Gradient            TolMAXG  ....  3.0000e-04 Eh/bohr
RMS Gradient             TolRMSG  ....  1.0000e-04 Eh/bohr
Max. Displacement        TolMAXD  ....  4.0000e-03 bohr
RMS Displacement         TolRMSD  ....  2.0000e-03 bohr
Strict Convergence                ....  False
------------------------------------------------------------------------------
                        ORCA OPTIMIZATION COORDINATE SETUP
------------------------------------------------------------------------------

The optimization will be done in new redundant internal coordinates
Making redundant internal coordinates   ...  (new redundants) done
Evaluating the initial hessian          ...  (Almloef) done
Evaluating the coordinates              ...  done
Calculating the B-matrix                .... done
Calculating the G-matrix                .... done
Diagonalizing the G-matrix              .... done
Imposing constraints:
 Iter   0:  RMS(Cart)=    0.2910780806 RMS(Int)=    0.0337409879
 Iter   1:  RMS(Cart)=    0.0086615917 RMS(Int)=    0.0032735383
 Iter   2:  RMS(Cart)=    0.0008403445 RMS(Int)=    0.0003326671
 Iter   3:  RMS(Cart)=    0.0000853984 RMS(Int)=    0.0000339612
 Iter   4:  RMS(Cart)=    0.0000087181 RMS(Int)=    0.0000034686
 Iter   5:  RMS(Cart)=    0.0000008904 RMS(Int)=    0.0000003543
 Iter   6:  RMS(Cart)=    0.0000000909 RMS(Int)=    0.0000000362
CONVERGED
The first mode is                       ....    0
The number of degrees of freedom        ....    3
Storing new coordinates                 .... done

    -----------------------------------------------------------------
                    Redundant Internal Coordinates


    -----------------------------------------------------------------
         Definition                    Initial Value    Approx d2E/dq
    -----------------------------------------------------------------
      1. B(H   1,O   0)                  0.5000         0.310859 C 
      2. B(H   2,O   0)                  1.1087         0.310924   
      3. A(H   1,O   0,H   2)           91.7883         0.273475   
    -----------------------------------------------------------------

Number of atoms                         .... 3
Number of degrees of freedom            .... 3

         *************************************************************
         *                GEOMETRY OPTIMIZATION CYCLE   1            *
         *************************************************************
---------------------------------
CARTESIAN COORDINATES (ANGSTROEM)
---------------------------------
  O      0.211087    2.381548    0.077548
  H      0.679320    2.483918   -0.064854
  H     -0.210028    2.980234   -0.755254

----------------------------
CARTESIAN COORDINATES (A.U.)
----------------------------
  NO LB      ZA    FRAG     MASS         X           Y           Z
   0 O     8.0000    0    15.999    0.398897    4.500473    0.146545
   1 H     1.0000    0     1.008    1.283730    4.693924   -0.122556
   2 H     1.0000    0     1.008   -0.396895    5.631827   -1.427224

--------------------------------
INTERNAL COORDINATES (ANGSTROEM)
--------------------------------
 O      0   0   0     0.000000000000     0.00000000     0.00000000
 H      1   0   0     1.100026897308     0.00000000     0.00000000
 H      1   2   0     1.099969905134   100.74477488     0.00000000

---------------------------
INTERNAL COORDINATES (A.U.)
---------------------------
 O      0   0   0     0.000000000000     0.00000000     0.00000000
 H      1   0   0     2.078749575858     0.00000000     0.00000000
 H      1   2   0     2.078641876258   100.74477488     0.00000000

---------------------
BASIS SET INFORMATION
---------------------
There are 2 groups of distinct atoms

 Group   1 Type O   : 6s3p contracted to 3s2p pattern {321/21}
 Group   2 Type H   : 3s contracted to 2s pattern {21}

Atom   0O    basis set group =>   1
Atom   1H    basis set group =>   2
Atom   2H    basis set group =>   2
------------------------------------------------------------------------------
                           ORCA GTO INTEGRAL CALCULATION
------------------------------------------------------------------------------

                         BASIS SET STATISTICS AND STARTUP INFO

 # of primitive gaussian shells          ...   15
 # of primitive gaussian functions       ...   21
 # of contracted shells                  ...    9
 # of contracted basis functions         ...   13
 Highest angular momentum                ...    1
 Maximum contraction depth               ...    3
 Integral package used                   ... LIBINT
 Integral threshhold            Thresh   ...  2.500e-11
 Primitive cut-off              TCut     ...  2.500e-12


------------------------------ INTEGRAL EVALUATION ----------------------------


 * One electron integrals 
 Pre-screening matrix                    ... done
 Shell pair data                         ... done (   0.001 sec)

-------------------------------------------------------------------------------
                                 ORCA SCF
-------------------------------------------------------------------------------

------------
SCF SETTINGS
------------
Hamiltonian:
 Ab initio Hamiltonian  Method          .... Hartree-Fock(GTOs)


General Settings:
 Integral files         IntName         .... pes
 Hartree-Fock type      HFTyp           .... RHF
 Total Charge           Charge          ....    0
 Multiplicity           Mult            ....    1
 Number of Electrons    NEL             ....   10
 Basis Dimension        Dim             ....   13
 Nuclear Repulsion      ENuc            ....     12.7151087664 Eh

Convergence Acceleration:
 DIIS                   CNVDIIS         .... on
   Start iteration      DIISMaxIt       ....    12
   Startup error        DIISStart       ....  0.200000
   # of expansion vecs  DIISMaxEq       ....     5
   Bias factor          DIISBfac        ....   1.050
   Max. coefficient     DIISMaxC        ....  10.000
 Newton-Raphson         CNVNR           .... off
 SOSCF                  CNVSOSCF        .... on
   Start iteration      SOSCFMaxIt      ....   150
   Startup grad/error   SOSCFStart      ....  0.003300
 Level Shifting         CNVShift        .... on
   Level shift para.    LevelShift      ....    0.2500
   Turn off err/grad.   ShiftErr        ....    0.0010
 Zerner damping         CNVZerner       .... off
 Static damping         CNVDamp         .... on
   Fraction old density DampFac         ....    0.7000
   Max. Damping (<1)    DampMax         ....    0.9800
   Min. Damping (>=0)   DampMin         ....    0.0000
   Turn off err/grad.   DampErr         ....    0.1000
 Fernandez-Rico         CNVRico         .... off

SCF Procedure:
 Maximum # iterations   MaxIter         ....   125
 SCF integral mode      SCFMode         .... Direct
   Integral package                     .... LIBINT
 Reset frequency        DirectResetFreq ....    20
 Integral Threshold     Thresh          ....  2.500e-11 Eh
 Primitive CutOff       TCut            ....  2.500e-12 Eh

Convergence Tolerance:
 Convergence Check Mode ConvCheckMode   .... Total+1el-Energy
 Convergence forced     ConvForced      .... 0
 Energy Change          TolE            ....  1.000e-08 Eh
 1-El. energy change                    ....  1.000e-05 Eh
 Orbital Gradient       TolG            ....  1.000e-05
 Orbital Rotation angle TolX            ....  1.000e-05
 DIIS Error             TolErr          ....  5.000e-07


Diagonalization of the overlap matrix:
Smallest eigenvalue                        ... 4.355e-02
Time for diagonalization                   ...    0.001 sec
Threshold for overlap eigenvalues          ... 1.000e-08
Number of eigenvalues below threshold      ... 0
Time for construction of square roots      ...    0.000 sec
Total time needed                          ...    0.001 sec

-------------------
DFT GRID GENERATION
-------------------

General Integration Accuracy     IntAcc      ...  4.340
Radial Grid Type                 RadialGrid  ... Gauss-Chebyshev
Angular Grid (max. acc.)         AngularGrid ... Lebedev-110
Angular grid pruning method      GridPruning ... 3 (G Style)
Weight generation scheme         WeightScheme... Becke
Basis function cutoff            BFCut       ...    1.0000e-11
Integration weight cutoff        WCut        ...    1.0000e-14
Grids for H and He will be reduced by one unit

# of grid points (after initial pruning)     ...   3304 (   0.0 sec)
# of grid points (after weights+screening)   ...   3279 (   0.0 sec)
nearest neighbour list constructed           ...    0.0 sec
Grid point re-assignment to atoms done       ...    0.0 sec
Grid point division into batches done        ...    0.0 sec
Reduced shell lists constructed in    0.0 sec

Total number of grid points                  ...     3279
Total number of batches                      ...       53
Average number of points per batch           ...       61
Average number of grid points per atom       ...     1093
Average number of shells per batch           ...     8.09 (89.92%)
Average number of basis functions per batch  ...    11.80 (90.74%)
Average number of large shells per batch     ...     7.76 (95.88%)
Average number of large basis fcns per batch ...    11.35 (96.23%)
Maximum spatial batch extension              ...  20.95, 25.65, 21.59 au
Average spatial batch extension              ...   5.29,  5.96,  5.14 au

Time for grid setup =    0.009 sec

------------------------------
INITIAL GUESS: MODEL POTENTIAL
------------------------------
Loading Hartree-Fock densities                     ... done
Calculating cut-offs                               ... done
Setting up the integral package                    ... done
Initializing the effective Hamiltonian             ... done
Starting the Coulomb interaction                   ... done (   0.0 sec)
Reading the grid                                   ... done
Mapping shells                                     ... done
Starting the XC term evaluation                    ... done (   0.0 sec)
Transforming the Hamiltonian                       ... done (   0.0 sec)
Diagonalizing the Hamiltonian                      ... done (   0.0 sec)
Back transforming the eigenvectors                 ... done (   0.0 sec)
Now organizing SCF variables                       ... done
                      ------------------
                      INITIAL GUESS DONE (   0.1 sec)
                      ------------------
--------------
SCF ITERATIONS
--------------
ITER       Energy         Delta-E        Max-DP      RMS-DP      [F,P]     Damp
               ***  Starting incremental Fock matrix formation  ***
  0    -74.5285991583   0.000000000000 0.08290223  0.01467729  0.5437485 0.7000
  1    -74.6172955755  -0.088696417245 0.05819049  0.01047111  0.3338449 0.7000
                               ***Turning on DIIS***
  2    -74.6678144577  -0.050518882153 0.03509636  0.00629054  0.1901811 0.7000
  3    -74.9755150568  -0.307700599133 0.01693142  0.00309343  0.1071516 0.7000
  4    -74.9359490183   0.039566038498 0.03533264  0.00668098  0.0711631 0.0000
  5    -74.7692807731   0.166668245248 0.00339918  0.00086348  0.0059457 0.0000
  6    -74.7708619912  -0.001581218113 0.00288089  0.00055927  0.0034039 0.0000
                      *** Initiating the SOSCF procedure ***
                           *** Shutting down DIIS ***
                      *** Re-Reading the Fockian *** 
                      *** Removing any level shift *** 
ITER      Energy       Delta-E        Grad      Rot      Max-DP    RMS-DP
  7    -74.76779736   0.0030646325  0.001139  0.001139  0.001476  0.000285
               *** Restarting incremental Fock matrix formation ***
  8    -74.76679334   0.0010040187  0.000150  0.000188  0.000285  0.000047
  9    -74.76679348  -0.0000001436  0.000073  0.000173  0.000249  0.000039
 10    -74.76679352  -0.0000000362  0.000018  0.000012  0.000021  0.000004
 11    -74.76679352  -0.0000000009  0.000005  0.000002  0.000004  0.000001
                 **** Energy Check signals convergence ****
              ***Rediagonalizing the Fockian in SOSCF/NRSCF***

               *****************************************************
               *                     SUCCESS                       *
               *           SCF CONVERGED AFTER  12 CYCLES          *
               *****************************************************


----------------
TOTAL SCF ENERGY
----------------

Total Energy       :          -74.76679352 Eh           -2034.50788 eV

Components:
Nuclear Repulsion  :           12.71510877 Eh             345.99570 eV
Electronic Energy  :          -87.48190229 Eh           -2380.50358 eV
One Electron Energy:         -127.33367325 Eh           -3464.92540 eV
Two Electron Energy:           39.85177096 Eh            1084.42182 eV

Virial components:
Potential Energy   :         -152.19196882 Eh           -4141.35401 eV
Kinetic Energy     :           77.42517530 Eh            2106.84613 eV
Virial Ratio       :            1.96566515


---------------
SCF CONVERGENCE
---------------

  Last Energy change         ...   -7.3186e-11  Tolerance :   1.0000e-08
  Last MAX-Density change    ...    7.7274e-07  Tolerance :   1.0000e-07
  Last RMS-Density change    ...    1.9011e-07  Tolerance :   5.0000e-09
  Last Orbital Gradient      ...    6.3163e-07  Tolerance :   1.0000e-05
  Last Orbital Rotation      ...    5.0031e-07  Tolerance :   1.0000e-05

             **** THE GBW FILE WAS UPDATED (pes.gbw) ****
             **** DENSITY FILE WAS UPDATED (pes.scfp) ****
             **** ENERGY FILE WAS UPDATED (pes.en.tmp) ****
             **** THE GBW FILE WAS UPDATED (pes.gbw) ****
             **** DENSITY FILE WAS UPDATED (pes.scfp) ****
----------------
ORBITAL ENERGIES
----------------

  NO   OCC          E(Eh)            E(eV) 
   0   2.0000     -20.429496      -555.9148 
   1   2.0000      -1.561434       -42.4888 
   2   2.0000      -0.746909       -20.3244 
   3   2.0000      -0.569429       -15.4949 
   4   2.0000      -0.507796       -13.8178 
   5   0.0000       0.228707         6.2234 
   6   0.0000       0.414071        11.2674 
   7   0.0000       1.093158        29.7463 
   8   0.0000       1.574098        42.8334 
   9   0.0000       1.762367        47.9565 
  10   0.0000       1.953840        53.1667 
  11   0.0000       2.620611        71.3104 
  12   0.0000       3.331068        90.6430 

                    ********************************
                    * MULLIKEN POPULATION ANALYSIS *
                    ********************************

-----------------------
MULLIKEN ATOMIC CHARGES
-----------------------
   0 O :   -0.421874
   1 H :    0.139148
   2 H :    0.282726
Sum of atomic charges:    0.0000000

--------------------------------
MULLIKEN REDUCED ORBITAL CHARGES
--------------------------------
  0 O s       :     3.679085  s :     3.679085
      pz      :     1.670219  p :     4.742790
      px      :     1.242999
      py      :     1.829571
  1 H s       :     0.860852  s :     0.860852
  2 H s       :     0.717274  s :     0.717274


                     *******************************
                     * LOEWDIN POPULATION ANALYSIS *
                     *******************************

----------------------
LOEWDIN ATOMIC CHARGES
----------------------
   0 O :   -0.279374
   1 H :    0.037417
   2 H :    0.241957

-------------------------------
LOEWDIN REDUCED ORBITAL CHARGES
-------------------------------
  0 O s       :     3.363277  s :     3.363277
      pz      :     1.677157  p :     4.916097
      px      :     1.405783
      py      :     1.833157
  1 H s       :     0.962583  s :     0.962583
  2 H s       :     0.758043  s :     0.758043


                      *****************************
                      * MAYER POPULATION ANALYSIS *
                      *****************************

  NA   - Mulliken gross atomic population
  ZA   - Total nuclear charge
  QA   - Mulliken gross atomic charge
  VA   - Mayer's total valence
  BVA  - Mayer's bonded valence
  FA   - Mayer's free valence

  ATOM       NA         ZA         QA         VA         BVA        FA
  0 O      8.4219     8.0000    -0.4219     1.8654     1.8654     0.0000
  1 H      0.8609     1.0000     0.1391     0.9064     0.9064     0.0000
  2 H      0.7173     1.0000     0.2827     0.9008     0.9008     0.0000

  Mayer bond orders larger than 0.100000
B(  0-O ,  1-H ) :   0.9355 B(  0-O ,  2-H ) :   0.9299 

-------
TIMINGS
-------

Total SCF time: 0 days 0 hours 0 min 1 sec 

Total time                  ....       1.150 sec
Sum of individual times     ....       1.018 sec  ( 88.5%)

Fock matrix formation       ....       0.942 sec  ( 81.9%)
Diagonalization             ....       0.000 sec  (  0.0%)
Density matrix formation    ....       0.000 sec  (  0.0%)
Population analysis         ....       0.001 sec  (  0.1%)
Initial guess               ....       0.064 sec  (  5.5%)
Orbital Transformation      ....       0.000 sec  (  0.0%)
Orbital Orthonormalization  ....       0.000 sec  (  0.0%)
DIIS solution               ....       0.002 sec  (  0.1%)
SOSCF solution              ....       0.001 sec  (  0.1%)

-------------------------   --------------------
FINAL SINGLE POINT ENERGY       -74.766793520694
-------------------------   --------------------

------------------------------------------------------------------------------
                         ORCA SCF GRADIENT CALCULATION
------------------------------------------------------------------------------

Gradient of the Hartree-Fock SCF energy:
Hartree-Fock type                ... RHF
Number of operators              ...    1
Number of atoms                  ...    3
Basis set dimensions             ...   13
Integral neglect threshold       ... 2.5e-11
Integral primitive cutoff        ... 2.5e-12

Nuclear repulsion gradient       ... done
One Electron Gradient            ... done
Pre-screening matrix             ... done
Starting the two electron gradient:
Two electron gradient done

------------------
CARTESIAN GRADIENT
------------------

   1   O   :    3.159658886    0.589887123   -0.820565731
   2   H   :   -3.159405409   -0.643155310    0.894664711
   3   H   :   -0.000253478    0.053268188   -0.074098980

Difference to translation invariance:
           :   -0.0000000000    0.0000000000   -0.0000000000

Norm of the cartesian gradient     ...    4.7126408385
RMS gradient                       ...    1.5708802795
MAX gradient                       ...    3.1596588863

-------
TIMINGS
-------

Total SCF gradient time            ...        0.071 sec

One electron gradient       ....       0.001 sec  (  0.8%)
Prescreening matrices       ....       0.000 sec  (  0.4%)
Two electron gradient       ....       0.005 sec  (  6.7%)
------------------------------------------------------------------------------
                         ORCA GEOMETRY RELAXATION STEP
------------------------------------------------------------------------------

Reading the OPT-File                    .... done
Getting information on internals        .... done
Copying old internal coords+grads       .... done
Making the new internal coordinates     .... (new redundants).... done
Validating the new internal coordinates .... (new redundants).... done
Calculating the B-matrix                .... done
Calculating the G,G- and P matrices     .... done
Transforming gradient to internals      .... done
Projecting the internal gradient        .... done
Number of atoms                         ....   3
Number of internal coordinates          ....   3
Current Energy                          ....   -74.766793521 Eh
Current gradient norm                   ....     4.712640838 Eh/bohr
Maximum allowed component of the step   ....  0.300
Current trust radius                    ....  0.300
Evaluating the initial hessian          ....  (Almloef) done
Projecting the Hessian                  .... done
Forming the augmented Hessian           .... done
Diagonalizing the augmented Hessian     .... done
Last element of RFO vector              ....  0.956647131
Lowest eigenvalues of augmented Hessian:
 -0.033608753  0.319268841  0.406002921
Length of the computed step             ....  0.304448195
Warning: the length of the step is outside the trust region - taking restricted step instead
The input lambda is                     ....    -0.033609
   iter:   1  x=   -0.038805  g=    0.517446 f(x)=     0.002689
   iter:   2  x=   -0.038922  g=    0.495341 f(x)=     0.000058
   iter:   3  x=   -0.038922  g=    0.494858 f(x)=     0.000000
   iter:   4  x=   -0.038922  g=    0.494858 f(x)=     0.000000
   iter:   5  x=   -0.038922  g=    0.494858 f(x)=    -0.000000
The output lambda is                    ....    -0.038922 (5 iterations)
The final length of the internal step   ....  0.300000000
Converting the step to cartesian space:
 Initial RMS(Int)=    0.1732050808
Transforming coordinates:
 Iter   0:  RMS(Cart)=    0.0591819192 RMS(Int)=    0.1731842956
 Iter   1:  RMS(Cart)=    0.0029280889 RMS(Int)=    0.0072843466
 Iter   2:  RMS(Cart)=    0.0005572563 RMS(Int)=    0.0014222483
 Iter   3:  RMS(Cart)=    0.0000762679 RMS(Int)=    0.0001761812
 Iter   4:  RMS(Cart)=    0.0000128409 RMS(Int)=    0.0000344004
 Iter   5:  RMS(Cart)=    0.0000019483 RMS(Int)=    0.0000042795
 Iter   6:  RMS(Cart)=    0.0000002913 RMS(Int)=    0.0000008169
 Iter   7:  RMS(Cart)=    0.0000000495 RMS(Int)=    0.0000001060
Imposing constraints:
 Iter   0:  RMS(Cart)=    0.0000000127 RMS(Int)=    0.0000000009
CONVERGED
done
Storing new coordinates                 .... done

                                .--------------------.
          ----------------------|Geometry convergence|-------------------------
          Item                value                   Tolerance       Converged
          ---------------------------------------------------------------------
          RMS gradient        0.0641508763            0.0001000000      NO
          MAX gradient        0.0845164455            0.0003000000      NO
          RMS step            0.1732050808            0.0020000000      NO
          MAX step            0.2485936814            0.0040000000      NO
          ........................................................
          Max(Bonds)      0.1316      Max(Angles)    9.62
          Max(Dihed)        0.00      Max(Improp)    0.00
          ---------------------------------------------------------------------

The optimization has not yet converged - more geometry cycles are needed


    ---------------------------------------------------------------------------
                         Redundant Internal Coordinates
                            (Angstroem and degrees)

        Definition                    Value    dE/dq     Step     New-Value
    ----------------------------------------------------------------------------
     1. B(H   1,O   0)                0.5000 -3.345159  0.0000    0.5000 C 
     2. B(H   2,O   0)                1.1087  0.084516 -0.1316    0.9772   
     3. A(H   1,O   0,H   2)           91.79 -0.072132    9.62    101.41   
    ----------------------------------------------------------------------------

         *************************************************************
         *                GEOMETRY OPTIMIZATION CYCLE   2            *
         *************************************************************
---------------------------------
CARTESIAN COORDINATES (ANGSTROEM)
---------------------------------
  O      0.190268    2.420704    0.023080
  H      0.680232    2.478883   -0.057850
  H     -0.190120    2.946112   -0.707789

----------------------------
CARTESIAN COORDINATES (A.U.)
----------------------------
  NO LB      ZA    FRAG     MASS         X           Y           Z
   0 O     8.0000    0    15.999    0.359553    4.574468    0.043614
   1 H     1.0000    0     1.008    1.285453    4.684410   -0.109321
   2 H     1.0000    0     1.008   -0.359275    5.567346   -1.337528

--------------------------------
INTERNAL COORDINATES (ANGSTROEM)
--------------------------------
 O      0   0   0     0.000000000000     0.00000000     0.00000000
 H      1   0   0     0.500000001147     0.00000000     0.00000000
 H      1   2   0     0.977198599715   101.41011603     0.00000000

---------------------------
INTERNAL COORDINATES (A.U.)
---------------------------
 O      0   0   0     0.000000000000     0.00000000     0.00000000
 H      1   0   0     0.944863069128     0.00000000     0.00000000
 H      1   2   0     1.846637731912   101.41011603     0.00000000


Diagonalization of the overlap matrix:
Smallest eigenvalue                        ... 4.340e-02
Time for diagonalization                   ...    0.000 sec
Threshold for overlap eigenvalues          ... 1.000e-08
Number of eigenvalues below threshold      ... 0
Time for construction of square roots      ...    0.000 sec
Total time needed                          ...    0.000 sec

--------------
SCF ITERATIONS
--------------
ITER       Energy         Delta-E        Max-DP      RMS-DP      [F,P]     Damp
               ***  Starting incremental Fock matrix formation  ***
  0    -74.7798163234   0.000000000000 0.01657237  0.00313690  0.0623596 0.7000
  1    -74.7825089532  -0.002692629745 0.01328198  0.00269127  0.0505702 0.7000
                               ***Turning on DIIS***
  2    -74.7846424824  -0.002133529179 0.03307828  0.00698865  0.0404375 0.0000
  3    -74.7763501470   0.008292335406 0.00823287  0.00205549  0.0130948 0.0000
  4    -74.7853474916  -0.008997344669 0.00322963  0.00057642  0.0038180 0.0000
                      *** Initiating the SOSCF procedure ***
                           *** Shutting down DIIS ***
                      *** Re-Reading the Fockian *** 
                      *** Removing any level shift *** 
ITER      Energy       Delta-E        Grad      Rot      Max-DP    RMS-DP
  5    -74.79030704  -0.0049595478  0.001104  0.001104  0.001532  0.000269
               *** Restarting incremental Fock matrix formation ***
  6    -74.79098967  -0.0006826315  0.000123  0.000114  0.000194  0.000031
  7    -74.79098975  -0.0000000795  0.000045  0.000056  0.000089  0.000017
  8    -74.79098976  -0.0000000113  0.000011  0.000004  0.000011  0.000002
                  ***Gradient check signals convergence***
              ***Rediagonalizing the Fockian in SOSCF/NRSCF***

               *****************************************************
               *                     SUCCESS                       *
               *           SCF CONVERGED AFTER   9 CYCLES          *
               *****************************************************

Total Energy       :          -74.79098976 Eh           -2035.16630 eV
  Last Energy change         ...   -3.4991e-10  Tolerance :   1.0000e-08
  Last MAX-Density change    ...    2.8441e-06  Tolerance :   1.0000e-07
             **** THE GBW FILE WAS UPDATED (pes.gbw) ****
             **** DENSITY FILE WAS UPDATED (pes.scfp) ****
             **** ENERGY FILE WAS UPDATED (pes.en.tmp) ****
             **** THE GBW FILE WAS UPDATED (pes.gbw) ****
             **** DENSITY FILE WAS UPDATED (pes.scfp) ****
Total SCF time: 0 days 0 hours 0 min 0 sec 

-------------------------   --------------------
FINAL SINGLE POINT ENERGY       -74.790989762082
-------------------------   --------------------

------------------------------------------------------------------------------
                         ORCA SCF GRADIENT CALCULATION
------------------------------------------------------------------------------

Gradient of the Hartree-Fock SCF energy:
Hartree-Fock type                ... RHF
Number of operators              ...    1
Number of atoms                  ...    3
Basis set dimensions             ...   13
Integral neglect threshold       ... 2.5e-11
Integral primitive cutoff        ... 2.5e-12

Nuclear repulsion gradient       ... done
One Electron Gradient            ... done
Pre-screening matrix             ... done
Starting the two electron gradient:
Two electron gradient done

------------------
CARTESIAN GRADIENT
------------------

   1   O   :    3.260244882    0.341798636   -0.475462356
   2   H   :   -3.282039486   -0.355613716    0.494679848
   3   H   :    0.021794603    0.013815079   -0.019217492

Difference to translation invariance:
           :    0.0000000000   -0.0000000000   -0.0000000000

Norm of the cartesian gradient     ...    4.7027731265
RMS gradient                       ...    1.5675910422
MAX gradient                       ...    3.2820394857

-------
TIMINGS
-------

Total SCF gradient time            ...        0.062 sec

One electron gradient       ....       0.000 sec  (  0.3%)
Prescreening matrices       ....       0.000 sec  (  0.1%)
Two electron gradient       ....       0.001 sec  (  1.3%)
------------------------------------------------------------------------------
                         ORCA GEOMETRY RELAXATION STEP
------------------------------------------------------------------------------

Reading the OPT-File                    .... done
Getting information on internals        .... done
Copying old internal coords+grads       .... done
Making the new internal coordinates     .... (new redundants).... done
Validating the new internal coordinates .... (new redundants).... done
Calculating the B-matrix                .... done
Calculating the G,G- and P matrices     .... done
Transforming gradient to internals      .... done
Projecting the internal gradient        .... done
Number of atoms                         ....   3
Number of internal coordinates          ....   3
Current Energy                          ....   -74.790989762 Eh
Current gradient norm                   ....     4.702773127 Eh/bohr
Maximum allowed component of the step   ....  0.300
Current trust radius                    ....  0.300
Updating the Hessian (BFGS)             .... done
Forming the augmented Hessian           .... done
Diagonalizing the augmented Hessian     .... done
Last element of RFO vector              ....  0.968750902
Lowest eigenvalues of augmented Hessian:
 -0.014062818  0.207847531  0.423766743
Length of the computed step             ....  0.256036572
The final length of the internal step   ....  0.256036572
Converting the step to cartesian space:
 Initial RMS(Int)=    0.1478227840
Transforming coordinates:
 Iter   0:  RMS(Cart)=    0.0397114982 RMS(Int)=    0.1297447077
 Iter   1:  RMS(Cart)=    0.0071692510 RMS(Int)=    0.0217511359
 Iter   2:  RMS(Cart)=    0.0013710029 RMS(Int)=    0.0027986323
 Iter   3:  RMS(Cart)=    0.0001962354 RMS(Int)=    0.0005900395
 Iter   4:  RMS(Cart)=    0.0000404749 RMS(Int)=    0.0000816554
 Iter   5:  RMS(Cart)=    0.0000054708 RMS(Int)=    0.0000167411
 Iter   6:  RMS(Cart)=    0.0000011712 RMS(Int)=    0.0000023541
 Iter   7:  RMS(Cart)=    0.0000001526 RMS(Int)=    0.0000004736
 Iter   8:  RMS(Cart)=    0.0000000338 RMS(Int)=    0.0000000680
Imposing constraints:
 Iter   0:  RMS(Cart)=    0.0000000044 RMS(Int)=    0.0000000003
CONVERGED
done
Storing new coordinates                 .... done

                                .--------------------.
          ----------------------|Geometry convergence|-------------------------
          Item                value                   Tolerance       Converged
          ---------------------------------------------------------------------
          Energy change      -0.0241962414            0.0000050000      NO
          RMS gradient        0.0321592860            0.0001000000      NO
          MAX gradient        0.0540861074            0.0003000000      NO
          RMS step            0.1478227840            0.0020000000      NO
          MAX step            0.2349600787            0.0040000000      NO
          ........................................................
          Max(Bonds)      0.0538      Max(Angles)   13.46
          Max(Dihed)        0.00      Max(Improp)    0.00
          ---------------------------------------------------------------------

The optimization has not yet converged - more geometry cycles are needed


    ---------------------------------------------------------------------------
                         Redundant Internal Coordinates
                            (Angstroem and degrees)

        Definition                    Value    dE/dq     Step     New-Value
    ----------------------------------------------------------------------------
     1. B(H   1,O   0)                0.5000 -3.337615 -0.0000    0.5000 C 
     2. B(H   2,O   0)                0.9772  0.013317 -0.0538    0.9234   
     3. A(H   1,O   0,H   2)          101.41 -0.054086   13.46    114.87   
    ----------------------------------------------------------------------------

         *************************************************************
         *                GEOMETRY OPTIMIZATION CYCLE   3            *
         *************************************************************
---------------------------------
CARTESIAN COORDINATES (ANGSTROEM)
---------------------------------
  O      0.193567    2.451946   -0.020379
  H      0.693516    2.456106   -0.026167
  H     -0.206703    2.937648   -0.696014

----------------------------
CARTESIAN COORDINATES (A.U.)
----------------------------
  NO LB      ZA    FRAG     MASS         X           Y           Z
   0 O     8.0000    0    15.999    0.365788    4.633506   -0.038510
   1 H     1.0000    0     1.008    1.310555    4.641368   -0.049448
   2 H     1.0000    0     1.008   -0.390612    5.551350   -1.315277

--------------------------------
INTERNAL COORDINATES (ANGSTROEM)
--------------------------------
 O      0   0   0     0.000000000000     0.00000000     0.00000000
 H      1   0   0     0.500000001765     0.00000000     0.00000000
 H      1   2   0     0.923366716027   114.87233562     0.00000000

---------------------------
INTERNAL COORDINATES (A.U.)
---------------------------
 O      0   0   0     0.000000000000     0.00000000     0.00000000
 H      1   0   0     0.944863070297     0.00000000     0.00000000
 H      1   2   0     1.744910214470   114.87233562     0.00000000


Diagonalization of the overlap matrix:
Smallest eigenvalue                        ... 4.494e-02
Time for diagonalization                   ...    0.000 sec
Threshold for overlap eigenvalues          ... 1.000e-08
Number of eigenvalues below threshold      ... 0
Time for construction of square roots      ...    0.000 sec
Total time needed                          ...    0.000 sec

--------------
SCF ITERATIONS
--------------
ITER       Energy         Delta-E        Max-DP      RMS-DP      [F,P]     Damp
               ***  Starting incremental Fock matrix formation  ***
  0    -74.7890580791   0.000000000000 0.02054968  0.00329835  0.0638267 0.7000
  1    -74.7912948011  -0.002236721974 0.01688848  0.00277623  0.0516856 0.7000
                               ***Turning on DIIS***
  2    -74.7930744952  -0.001779694116 0.04254838  0.00712863  0.0410593 0.0000
  3    -74.7894104799   0.003664015311 0.00889727  0.00187914  0.0126939 0.0000
                      *** Initiating the SOSCF procedure ***
                           *** Shutting down DIIS ***
                      *** Re-Reading the Fockian *** 
                      *** Removing any level shift *** 
ITER      Energy       Delta-E        Grad      Rot      Max-DP    RMS-DP
  4    -74.79670854  -0.0072980613  0.001857  0.001857  0.001826  0.000413
               *** Restarting incremental Fock matrix formation ***
  5    -74.79834097  -0.0016324291  0.000478  0.000440  0.000714  0.000172
  6    -74.79834306  -0.0000020946  0.000190  0.000279  0.000417  0.000093
  7    -74.79834336  -0.0000002908  0.000056  0.000027  0.000039  0.000010
  8    -74.79834336  -0.0000000079  0.000013  0.000004  0.000009  0.000002
                 **** Energy Check signals convergence ****
              ***Rediagonalizing the Fockian in SOSCF/NRSCF***

               *****************************************************
               *                     SUCCESS                       *
               *           SCF CONVERGED AFTER   9 CYCLES          *
               *****************************************************

Total Energy       :          -74.79834336 Eh           -2035.36640 eV
  Last Energy change         ...   -4.4862e-10  Tolerance :   1.0000e-08
  Last MAX-Density change    ...    3.2019e-06  Tolerance :   1.0000e-07
             **** THE GBW FILE WAS UPDATED (pes.gbw) ****
             **** DENSITY FILE WAS UPDATED (pes.scfp) ****
             **** ENERGY FILE WAS UPDATED (pes.en.tmp) ****
             **** THE GBW FILE WAS UPDATED (pes.gbw) ****
             **** DENSITY FILE WAS UPDATED (pes.scfp) ****
Total SCF time: 0 days 0 hours 0 min 0 sec 

-------------------------   --------------------
FINAL SINGLE POINT ENERGY       -74.798343364131
-------------------------   --------------------

------------------------------------------------------------------------------
                         ORCA SCF GRADIENT CALCULATION
------------------------------------------------------------------------------

Gradient of the Hartree-Fock SCF energy:
Hartree-Fock type                ... RHF
Number of operators              ...    1
Number of atoms                  ...    3
Basis set dimensions             ...   13
Integral neglect threshold       ... 2.5e-11
Integral primitive cutoff        ... 2.5e-12

Nuclear repulsion gradient       ... done
One Electron Gradient            ... done
Pre-screening matrix             ... done
Starting the two electron gradient:
Two electron gradient done

------------------
CARTESIAN GRADIENT
------------------

   1   O   :    3.309172799    0.031593210   -0.043951083
   2   H   :   -3.330694369   -0.017829158    0.024804618
   3   H   :    0.021521570   -0.013764052    0.019146465

Difference to translation invariance:
           :    0.0000000000   -0.0000000000    0.0000000000

Norm of the cartesian gradient     ...    4.6956396564
RMS gradient                       ...    1.5652132188
MAX gradient                       ...    3.3306943690

-------
TIMINGS
-------

Total SCF gradient time            ...        0.061 sec

One electron gradient       ....       0.000 sec  (  0.3%)
Prescreening matrices       ....       0.000 sec  (  0.1%)
Two electron gradient       ....       0.001 sec  (  1.3%)
------------------------------------------------------------------------------
                         ORCA GEOMETRY RELAXATION STEP
------------------------------------------------------------------------------

Reading the OPT-File                    .... done
Getting information on internals        .... done
Copying old internal coords+grads       .... done
Making the new internal coordinates     .... (new redundants).... done
Validating the new internal coordinates .... (new redundants).... done
Calculating the B-matrix                .... done
Calculating the G,G- and P matrices     .... done
Transforming gradient to internals      .... done
Projecting the internal gradient        .... done
Number of atoms                         ....   3
Number of internal coordinates          ....   3
Current Energy                          ....   -74.798343364 Eh
Current gradient norm                   ....     4.695639656 Eh/bohr
Maximum allowed component of the step   ....  0.300
Current trust radius                    ....  0.300
Updating the Hessian (BFGS)             .... done
Forming the augmented Hessian           .... done
Diagonalizing the augmented Hessian     .... done
Last element of RFO vector              ....  0.994944638
Lowest eigenvalues of augmented Hessian:
 -0.003093467  0.172000055  0.493424426
Length of the computed step             ....  0.100935194
The final length of the internal step   ....  0.100935194
Converting the step to cartesian space:
 Initial RMS(Int)=    0.0582749614
Transforming coordinates:
 Iter   0:  RMS(Cart)=    0.0272953703 RMS(Int)=    0.0580484938
 Iter   1:  RMS(Cart)=    0.0004079931 RMS(Int)=    0.0010669717
 Iter   2:  RMS(Cart)=    0.0000225631 RMS(Int)=    0.0000489632
 Iter   3:  RMS(Cart)=    0.0000008471 RMS(Int)=    0.0000024435
 Iter   4:  RMS(Cart)=    0.0000000520 RMS(Int)=    0.0000001060
Imposing constraints:
 Iter   0:  RMS(Cart)=    0.0000000034 RMS(Int)=    0.0000000001
CONVERGED
done
Storing new coordinates                 .... done

                                .--------------------.
          ----------------------|Geometry convergence|-------------------------
          Item                value                   Tolerance       Converged
          ---------------------------------------------------------------------
          Energy change      -0.0073536020            0.0000050000      NO
          RMS gradient        0.0199270644            0.0001000000      NO
          MAX gradient        0.0305789764            0.0003000000      NO
          RMS step            0.0582749614            0.0020000000      NO
          MAX step            0.0826908183            0.0040000000      NO
          ........................................................
          Max(Bonds)      0.0306      Max(Angles)    4.74
          Max(Dihed)        0.00      Max(Improp)    0.00
          ---------------------------------------------------------------------

The optimization has not yet converged - more geometry cycles are needed


    ---------------------------------------------------------------------------
                         Redundant Internal Coordinates
                            (Angstroem and degrees)

        Definition                    Value    dE/dq     Step     New-Value
    ----------------------------------------------------------------------------
     1. B(H   1,O   0)                0.5000 -3.330792  0.0000    0.5000 C 
     2. B(H   2,O   0)                0.9234 -0.030579  0.0306    0.9540   
     3. A(H   1,O   0,H   2)          114.87 -0.016006    4.74    119.61   
    ----------------------------------------------------------------------------

         *************************************************************
         *                GEOMETRY OPTIMIZATION CYCLE   4            *
         *************************************************************
---------------------------------
CARTESIAN COORDINATES (ANGSTROEM)
---------------------------------
  O      0.205810    2.454225   -0.023549
  H      0.705381    2.442141   -0.006740
  H     -0.230811    2.949334   -0.712271

----------------------------
CARTESIAN COORDINATES (A.U.)
----------------------------
  NO LB      ZA    FRAG     MASS         X           Y           Z
   0 O     8.0000    0    15.999    0.388924    4.637813   -0.044502
   1 H     1.0000    0     1.008    1.332977    4.614977   -0.012737
   2 H     1.0000    0     1.008   -0.436169    5.573434   -1.345997

--------------------------------
INTERNAL COORDINATES (ANGSTROEM)
--------------------------------
 O      0   0   0     0.000000000000     0.00000000     0.00000000
 H      1   0   0     0.500000001556     0.00000000     0.00000000
 H      1   2   0     0.953995711022   119.61017015     0.00000000

---------------------------
INTERNAL COORDINATES (A.U.)
---------------------------
 O      0   0   0     0.000000000000     0.00000000     0.00000000
 H      1   0   0     0.944863069901     0.00000000     0.00000000
 H      1   2   0     1.802790626768   119.61017015     0.00000000


Diagonalization of the overlap matrix:
Smallest eigenvalue                        ... 4.551e-02
Time for diagonalization                   ...    0.000 sec
Threshold for overlap eigenvalues          ... 1.000e-08
Number of eigenvalues below threshold      ... 0
Time for construction of square roots      ...    0.000 sec
Total time needed                          ...    0.000 sec

--------------
SCF ITERATIONS
--------------
ITER       Energy         Delta-E        Max-DP      RMS-DP      [F,P]     Damp
               ***  Starting incremental Fock matrix formation  ***
  0    -74.7984887453   0.000000000000 0.00400656  0.00088501  0.0190223 0.7000
                      *** Initiating the SOSCF procedure ***
                      *** Re-Reading the Fockian *** 
                      *** Removing any level shift *** 
ITER      Energy       Delta-E        Grad      Rot      Max-DP    RMS-DP
  1    -74.79872214  -0.0002333900  0.002294  0.002294  0.011295  0.002473
               *** Restarting incremental Fock matrix formation ***
  2    -74.79939811  -0.0006759755  0.002995  0.001200  0.002756  0.000591
  3    -74.79943411  -0.0000360033  0.000829  0.000839  0.001011  0.000257
  4    -74.79943766  -0.0000035441  0.000225  0.000103  0.000377  0.000062
  5    -74.79943785  -0.0000001875  0.000048  0.000050  0.000186  0.000023
  6    -74.79943786  -0.0000000152  0.000014  0.000026  0.000064  0.000008
                 **** Energy Check signals convergence ****
              ***Rediagonalizing the Fockian in SOSCF/NRSCF***

               *****************************************************
               *                     SUCCESS                       *
               *           SCF CONVERGED AFTER   7 CYCLES          *
               *****************************************************

Total Energy       :          -74.79943786 Eh           -2035.39618 eV
  Last Energy change         ...   -1.2084e-09  Tolerance :   1.0000e-08
  Last MAX-Density change    ...    3.3281e-06  Tolerance :   1.0000e-07
             **** THE GBW FILE WAS UPDATED (pes.gbw) ****
             **** DENSITY FILE WAS UPDATED (pes.scfp) ****
             **** ENERGY FILE WAS UPDATED (pes.en.tmp) ****
             **** THE GBW FILE WAS UPDATED (pes.gbw) ****
             **** DENSITY FILE WAS UPDATED (pes.scfp) ****
Total SCF time: 0 days 0 hours 0 min 0 sec 

-------------------------   --------------------
FINAL SINGLE POINT ENERGY       -74.799437862089
-------------------------   --------------------

------------------------------------------------------------------------------
                         ORCA SCF GRADIENT CALCULATION
------------------------------------------------------------------------------

Gradient of the Hartree-Fock SCF energy:
Hartree-Fock type                ... RHF
Number of operators              ...    1
Number of atoms                  ...    3
Basis set dimensions             ...   13
Integral neglect threshold       ... 2.5e-11
Integral primitive cutoff        ... 2.5e-12

Nuclear repulsion gradient       ... done
One Electron Gradient            ... done
Pre-screening matrix             ... done
Starting the two electron gradient:
Two electron gradient done

------------------
CARTESIAN GRADIENT
------------------

   1   O   :    3.334118625   -0.086122377    0.119797182
   2   H   :   -3.327965108    0.079868023   -0.111097067
   3   H   :   -0.006153517    0.006254354   -0.008700115

Difference to translation invariance:
           :   -0.0000000000    0.0000000000   -0.0000000000

Norm of the cartesian gradient     ...    4.7151183785
RMS gradient                       ...    1.5717061262
MAX gradient                       ...    3.3341186245

-------
TIMINGS
-------

Total SCF gradient time            ...        0.061 sec

One electron gradient       ....       0.000 sec  (  0.3%)
Prescreening matrices       ....       0.000 sec  (  0.1%)
Two electron gradient       ....       0.001 sec  (  1.3%)
------------------------------------------------------------------------------
                         ORCA GEOMETRY RELAXATION STEP
------------------------------------------------------------------------------

Reading the OPT-File                    .... done
Getting information on internals        .... done
Copying old internal coords+grads       .... done
Making the new internal coordinates     .... (new redundants).... done
Validating the new internal coordinates .... (new redundants).... done
Calculating the B-matrix                .... done
Calculating the G,G- and P matrices     .... done
Transforming gradient to internals      .... done
Projecting the internal gradient        .... done
Number of atoms                         ....   3
Number of internal coordinates          ....   3
Current Energy                          ....   -74.799437862 Eh
Current gradient norm                   ....     4.715118378 Eh/bohr
Maximum allowed component of the step   ....  0.300
Current trust radius                    ....  0.300
Updating the Hessian (BFGS)             .... done
Forming the augmented Hessian           .... done
Diagonalizing the augmented Hessian     .... done
Last element of RFO vector              ....  0.999825434
Lowest eigenvalues of augmented Hessian:
 -0.000230453  0.160041642  0.667480072
Length of the computed step             ....  0.018687531
The final length of the internal step   ....  0.018687531
Converting the step to cartesian space:
 Initial RMS(Int)=    0.0107892513
Transforming coordinates:
 Iter   0:  RMS(Cart)=    0.0049830530 RMS(Int)=    0.0107879963
 Iter   1:  RMS(Cart)=    0.0000028868 RMS(Int)=    0.0000091386
 Iter   2:  RMS(Cart)=    0.0000000101 RMS(Int)=    0.0000000284
Imposing constraints:
 Iter   0:  RMS(Cart)=    0.0000000000 RMS(Int)=    0.0000000000
CONVERGED
done
Storing new coordinates                 .... done

                                .--------------------.
          ----------------------|Geometry convergence|-------------------------
          Item                value                   Tolerance       Converged
          ---------------------------------------------------------------------
          Energy change      -0.0010944980            0.0000050000      NO
          RMS gradient        0.0071507186            0.0001000000      NO
          MAX gradient        0.0123430637            0.0003000000      NO
          RMS step            0.0107892513            0.0020000000      NO
          MAX step            0.0186865432            0.0040000000      NO
          ........................................................
          Max(Bonds)      0.0099      Max(Angles)    0.01
          Max(Dihed)        0.00      Max(Improp)    0.00
          ---------------------------------------------------------------------

The optimization has not yet converged - more geometry cycles are needed


    ---------------------------------------------------------------------------
                         Redundant Internal Coordinates
                            (Angstroem and degrees)

        Definition                    Value    dE/dq     Step     New-Value
    ----------------------------------------------------------------------------
     1. B(H   1,O   0)                0.5000 -3.330776  0.0000    0.5000 C 
     2. B(H   2,O   0)                0.9540  0.012343 -0.0099    0.9441   
     3. A(H   1,O   0,H   2)          119.61  0.001023    0.01    119.62   
    ----------------------------------------------------------------------------

         *************************************************************
         *                GEOMETRY OPTIMIZATION CYCLE   5            *
         *************************************************************
---------------------------------
CARTESIAN COORDINATES (ANGSTROEM)
---------------------------------
  O      0.203893    2.455974   -0.025982
  H      0.703428    2.443396   -0.008487
  H     -0.226941    2.946329   -0.708091

----------------------------
CARTESIAN COORDINATES (A.U.)
----------------------------
  NO LB      ZA    FRAG     MASS         X           Y           Z
   0 O     8.0000    0    15.999    0.385302    4.641119   -0.049100
   1 H     1.0000    0     1.008    1.329287    4.617350   -0.016037
   2 H     1.0000    0     1.008   -0.428857    5.567756   -1.338098

--------------------------------
INTERNAL COORDINATES (ANGSTROEM)
--------------------------------
 O      0   0   0     0.000000000000     0.00000000     0.00000000
 H      1   0   0     0.500000001608     0.00000000     0.00000000
 H      1   2   0     0.944107218244   119.62118075     0.00000000

---------------------------
INTERNAL COORDINATES (A.U.)
---------------------------
 O      0   0   0     0.000000000000     0.00000000     0.00000000
 H      1   0   0     0.944863070000     0.00000000     0.00000000
 H      1   2   0     1.784104083540   119.62118075     0.00000000


Diagonalization of the overlap matrix:
Smallest eigenvalue                        ... 4.548e-02
Time for diagonalization                   ...    0.000 sec
Threshold for overlap eigenvalues          ... 1.000e-08
Number of eigenvalues below threshold      ... 0
Time for construction of square roots      ...    0.000 sec
Total time needed                          ...    0.000 sec

--------------
SCF ITERATIONS
--------------
ITER       Energy         Delta-E        Max-DP      RMS-DP      [F,P]     Damp
               ***  Starting incremental Fock matrix formation  ***
                      *** Initiating the SOSCF procedure ***
                      *** Re-Reading the Fockian *** 
                      *** Removing any level shift *** 
ITER      Energy       Delta-E        Grad      Rot      Max-DP    RMS-DP
  0    -74.79952641 -74.7995264132  0.002752  0.002752  0.002574  0.000525
               *** Restarting incremental Fock matrix formation ***
  1    -74.79956094  -0.0000345317  0.000762  0.000574  0.000837  0.000189
  2    -74.79956457  -0.0000036250  0.000249  0.000441  0.000521  0.000105
  3    -74.79956502  -0.0000004512  0.000081  0.000035  0.000076  0.000016
  4    -74.79956505  -0.0000000245  0.000016  0.000015  0.000036  0.000005
  5    -74.79956505  -0.0000000017  0.000005  0.000007  0.000015  0.000002
                 **** Energy Check signals convergence ****
              ***Rediagonalizing the Fockian in SOSCF/NRSCF***

               *****************************************************
               *                     SUCCESS                       *
               *           SCF CONVERGED AFTER   6 CYCLES          *
               *****************************************************

Total Energy       :          -74.79956505 Eh           -2035.39964 eV
  Last Energy change         ...   -1.3397e-10  Tolerance :   1.0000e-08
  Last MAX-Density change    ...    1.3012e-06  Tolerance :   1.0000e-07
             **** THE GBW FILE WAS UPDATED (pes.gbw) ****
             **** DENSITY FILE WAS UPDATED (pes.scfp) ****
             **** ENERGY FILE WAS UPDATED (pes.en.tmp) ****
             **** THE GBW FILE WAS UPDATED (pes.gbw) ****
             **** DENSITY FILE WAS UPDATED (pes.scfp) ****
Total SCF time: 0 days 0 hours 0 min 0 sec 

-------------------------   --------------------
FINAL SINGLE POINT ENERGY       -74.799565047434
-------------------------   --------------------

------------------------------------------------------------------------------
                         ORCA SCF GRADIENT CALCULATION
------------------------------------------------------------------------------

Gradient of the Hartree-Fock SCF energy:
Hartree-Fock type                ... RHF
Number of operators              ...    1
Number of atoms                  ...    3
Basis set dimensions             ...   13
Integral neglect threshold       ... 2.5e-11
Integral primitive cutoff        ... 2.5e-12

Nuclear repulsion gradient       ... done
One Electron Gradient            ... done
Pre-screening matrix             ... done
Starting the two electron gradient:
Two electron gradient done

------------------
CARTESIAN GRADIENT
------------------

   1   O   :    3.327520934   -0.084524385    0.117574301
   2   H   :   -3.327092779    0.083895364   -0.116699302
   3   H   :   -0.000428155    0.000629021   -0.000874999

Difference to translation invariance:
           :    0.0000000000    0.0000000000   -0.0000000000

Norm of the cartesian gradient     ...    4.7099435790
RMS gradient                       ...    1.5699811930
MAX gradient                       ...    3.3275209339

-------
TIMINGS
-------

Total SCF gradient time            ...        0.061 sec

One electron gradient       ....       0.000 sec  (  0.3%)
Prescreening matrices       ....       0.000 sec  (  0.1%)
Two electron gradient       ....       0.001 sec  (  1.3%)
------------------------------------------------------------------------------
                         ORCA GEOMETRY RELAXATION STEP
------------------------------------------------------------------------------

Reading the OPT-File                    .... done
Getting information on internals        .... done
Copying old internal coords+grads       .... done
Making the new internal coordinates     .... (new redundants).... done
Validating the new internal coordinates .... (new redundants).... done
Calculating the B-matrix                .... done
Calculating the G,G- and P matrices     .... done
Transforming gradient to internals      .... done
Projecting the internal gradient        .... done
Number of atoms                         ....   3
Number of internal coordinates          ....   3
Current Energy                          ....   -74.799565047 Eh
Current gradient norm                   ....     4.709943579 Eh/bohr
Maximum allowed component of the step   ....  0.300
Current trust radius                    ....  0.300
Updating the Hessian (BFGS)             .... done
Forming the augmented Hessian           .... done
Diagonalizing the augmented Hessian     .... done
Last element of RFO vector              ....  0.999995635
Lowest eigenvalues of augmented Hessian:
 -0.000002884  0.158791176  0.609665287
Length of the computed step             ....  0.002954558
The final length of the internal step   ....  0.002954558
Converting the step to cartesian space:
 Initial RMS(Int)=    0.0017058147
Transforming coordinates:
 Iter   0:  RMS(Cart)=    0.0005494590 RMS(Int)=    0.0017059375
 Iter   1:  RMS(Cart)=    0.0000003827 RMS(Int)=    0.0000007987
 Iter   2:  RMS(Cart)=    0.0000000005 RMS(Int)=    0.0000000015
Imposing constraints:
 Iter   0:  RMS(Cart)=    0.0000000000 RMS(Int)=    0.0000000000
CONVERGED
done
Storing new coordinates                 .... done

                                .--------------------.
          ----------------------|Geometry convergence|-------------------------
          Item                value                   Tolerance       Converged
          ---------------------------------------------------------------------
          Energy change      -0.0001271853            0.0000050000      NO
          RMS gradient        0.0006761326            0.0001000000      NO
          MAX gradient        0.0011542777            0.0003000000      NO
          RMS step            0.0017058147            0.0020000000      YES
          MAX step            0.0021520792            0.0040000000      YES
          ........................................................
          Max(Bonds)      0.0011      Max(Angles)    0.12
          Max(Dihed)        0.00      Max(Improp)    0.00
          ---------------------------------------------------------------------

The optimization has not yet converged - more geometry cycles are needed


    ---------------------------------------------------------------------------
                         Redundant Internal Coordinates
                            (Angstroem and degrees)

        Definition                    Value    dE/dq     Step     New-Value
    ----------------------------------------------------------------------------
     1. B(H   1,O   0)                0.5000 -3.330196  0.0000    0.5000 C 
     2. B(H   2,O   0)                0.9441  0.001154 -0.0011    0.9430   
     3. A(H   1,O   0,H   2)          119.62 -0.000198    0.12    119.74   
    ----------------------------------------------------------------------------

         *************************************************************
         *                GEOMETRY OPTIMIZATION CYCLE   6            *
         *************************************************************
---------------------------------
CARTESIAN COORDINATES (ANGSTROEM)
---------------------------------
  O      0.203833    2.456363   -0.026524
  H      0.703332    2.443300   -0.008353
  H     -0.226784    2.946036   -0.707683

----------------------------
CARTESIAN COORDINATES (A.U.)
----------------------------
  NO LB      ZA    FRAG     MASS         X           Y           Z
   0 O     8.0000    0    15.999    0.385188    4.641854   -0.050123
   1 H     1.0000    0     1.008    1.329104    4.617168   -0.015785
   2 H     1.0000    0     1.008   -0.428560    5.567202   -1.337328

--------------------------------
INTERNAL COORDINATES (ANGSTROEM)
--------------------------------
 O      0   0   0     0.000000000000     0.00000000     0.00000000
 H      1   0   0     0.500000001608     0.00000000     0.00000000
 H      1   2   0     0.942968386955   119.73716708     0.00000000

---------------------------
INTERNAL COORDINATES (A.U.)
---------------------------
 O      0   0   0     0.000000000000     0.00000000     0.00000000
 H      1   0   0     0.944863070000     0.00000000     0.00000000
 H      1   2   0     1.781952004290   119.73716708     0.00000000


Diagonalization of the overlap matrix:
Smallest eigenvalue                        ... 4.548e-02
Time for diagonalization                   ...    0.000 sec
Threshold for overlap eigenvalues          ... 1.000e-08
Number of eigenvalues below threshold      ... 0
Time for construction of square roots      ...    0.000 sec
Total time needed                          ...    0.000 sec

--------------
SCF ITERATIONS
--------------
ITER       Energy         Delta-E        Max-DP      RMS-DP      [F,P]     Damp
               ***  Starting incremental Fock matrix formation  ***
                      *** Initiating the SOSCF procedure ***
                      *** Re-Reading the Fockian *** 
                      *** Removing any level shift *** 
ITER      Energy       Delta-E        Grad      Rot      Max-DP    RMS-DP
  0    -74.79956528 -74.7995652780  0.000578  0.000578  0.000720  0.000118
               *** Restarting incremental Fock matrix formation ***
  1    -74.79956635  -0.0000010727  0.000155  0.000076  0.000173  0.000039
  2    -74.79956647  -0.0000001193  0.000047  0.000057  0.000079  0.000019
  3    -74.79956648  -0.0000000144  0.000014  0.000006  0.000013  0.000002
  4    -74.79956648  -0.0000000006  0.000003  0.000002  0.000002  0.000001
                 **** Energy Check signals convergence ****
              ***Rediagonalizing the Fockian in SOSCF/NRSCF***

               *****************************************************
               *                     SUCCESS                       *
               *           SCF CONVERGED AFTER   5 CYCLES          *
               *****************************************************

Total Energy       :          -74.79956648 Eh           -2035.39968 eV
  Last Energy change         ...   -4.2320e-11  Tolerance :   1.0000e-08
  Last MAX-Density change    ...    1.2290e-06  Tolerance :   1.0000e-07
             **** THE GBW FILE WAS UPDATED (pes.gbw) ****
             **** DENSITY FILE WAS UPDATED (pes.scfp) ****
             **** ENERGY FILE WAS UPDATED (pes.en.tmp) ****
             **** THE GBW FILE WAS UPDATED (pes.gbw) ****
             **** DENSITY FILE WAS UPDATED (pes.scfp) ****
Total SCF time: 0 days 0 hours 0 min 0 sec 

-------------------------   --------------------
FINAL SINGLE POINT ENERGY       -74.799566484985
-------------------------   --------------------

------------------------------------------------------------------------------
                         ORCA SCF GRADIENT CALCULATION
------------------------------------------------------------------------------

Gradient of the Hartree-Fock SCF energy:
Hartree-Fock type                ... RHF
Number of operators              ...    1
Number of atoms                  ...    3
Basis set dimensions             ...   13
Integral neglect threshold       ... 2.5e-11
Integral primitive cutoff        ... 2.5e-12

Nuclear repulsion gradient       ... done
One Electron Gradient            ... done
Pre-screening matrix             ... done
Starting the two electron gradient:
Two electron gradient done

------------------
CARTESIAN GRADIENT
------------------

   1   O   :    3.326696849   -0.087010872    0.121033131
   2   H   :   -3.326741330    0.087029331   -0.121058808
   3   H   :    0.000044482   -0.000018459    0.000025677

Difference to translation invariance:
           :   -0.0000000000    0.0000000000    0.0000000000

Norm of the cartesian gradient     ...    4.7094128140
RMS gradient                       ...    1.5698042713
MAX gradient                       ...    3.3267413301

-------
TIMINGS
-------

Total SCF gradient time            ...        0.061 sec

One electron gradient       ....       0.000 sec  (  0.4%)
Prescreening matrices       ....       0.000 sec  (  0.1%)
Two electron gradient       ....       0.001 sec  (  1.3%)
------------------------------------------------------------------------------
                         ORCA GEOMETRY RELAXATION STEP
------------------------------------------------------------------------------

Reading the OPT-File                    .... done
Getting information on internals        .... done
Copying old internal coords+grads       .... done
Making the new internal coordinates     .... (new redundants).... done
Validating the new internal coordinates .... (new redundants).... done
Calculating the B-matrix                .... done
Calculating the G,G- and P matrices     .... done
Transforming gradient to internals      .... done
Projecting the internal gradient        .... done
Number of atoms                         ....   3
Number of internal coordinates          ....   3
Current Energy                          ....   -74.799566485 Eh
Current gradient norm                   ....     4.709412814 Eh/bohr
Maximum allowed component of the step   ....  0.300
Current trust radius                    ....  0.300
Updating the Hessian (BFGS)             .... done
Forming the augmented Hessian           .... done
Diagonalizing the augmented Hessian     .... done
Last element of RFO vector              ....  0.999999967
Lowest eigenvalues of augmented Hessian:
 -0.000000013  0.149444970  0.650784929
Length of the computed step             ....  0.000256450
The final length of the internal step   ....  0.000256450
Converting the step to cartesian space:
 Initial RMS(Int)=    0.0001480615
Transforming coordinates:
 Iter   0:  RMS(Cart)=    0.0000564633 RMS(Int)=    0.0001480610
 Iter   1:  RMS(Cart)=    0.0000000044 RMS(Int)=    0.0000000094
Imposing constraints:
 Iter   0:  RMS(Cart)=    0.0000000000 RMS(Int)=    0.0000000000
CONVERGED
done
Storing new coordinates                 .... done

                                .--------------------.
          ----------------------|Geometry convergence|-------------------------
          Item                value                   Tolerance       Converged
          ---------------------------------------------------------------------
          Energy change      -0.0000014376            0.0000050000      YES
          RMS gradient        0.0000381331            0.0001000000      YES
          MAX gradient        0.0000484321            0.0003000000      YES
          RMS step            0.0001480615            0.0020000000      YES
          MAX step            0.0002527851            0.0040000000      YES
          ........................................................
          Max(Bonds)      0.0000      Max(Angles)    0.01
          Max(Dihed)        0.00      Max(Improp)    0.00
          ---------------------------------------------------------------------

                    ***********************HURRAY********************
                    ***        THE OPTIMIZATION HAS CONVERGED     ***
                    *************************************************


    ---------------------------------------------------------------------------
                         Redundant Internal Coordinates

                          --- Optimized Parameters ---  
                            (Angstroem and degrees)

        Definition                    OldVal   dE/dq     Step     FinalVal
    ----------------------------------------------------------------------------
     1. B(H   1,O   0)                0.5000 -3.330081 -0.0000    0.5000 C 
     2. B(H   2,O   0)                0.9430 -0.000048  0.0000    0.9430   
     3. A(H   1,O   0,H   2)          119.74 -0.000045    0.01    119.75   
    ----------------------------------------------------------------------------
                 *******************************************************
                 *** FINAL ENERGY EVALUATION AT THE STATIONARY POINT ***
                 ***               (AFTER    6 CYCLES)               ***
                 *******************************************************
---------------------------------
CARTESIAN COORDINATES (ANGSTROEM)
---------------------------------
  O      0.203857    2.456383   -0.026551
  H      0.703352    2.443267   -0.008307
  H     -0.226830    2.946050   -0.707702

----------------------------
CARTESIAN COORDINATES (A.U.)
----------------------------
  NO LB      ZA    FRAG     MASS         X           Y           Z
   0 O     8.0000    0    15.999    0.385235    4.641891   -0.050174
   1 H     1.0000    0     1.008    1.329143    4.617105   -0.015697
   2 H     1.0000    0     1.008   -0.428646    5.567228   -1.337364

--------------------------------
INTERNAL COORDINATES (ANGSTROEM)
--------------------------------
 O      0   0   0     0.000000000000     0.00000000     0.00000000
 H      1   0   0     0.500000001608     0.00000000     0.00000000
 H      1   2   0     0.942991248121   119.75165060     0.00000000

---------------------------
INTERNAL COORDINATES (A.U.)
---------------------------
 O      0   0   0     0.000000000000     0.00000000     0.00000000
 H      1   0   0     0.944863070000     0.00000000     0.00000000
 H      1   2   0     1.781995205634   119.75165060     0.00000000

---------------------
BASIS SET INFORMATION
---------------------
There are 2 groups of distinct atoms

 Group   1 Type O   : 6s3p contracted to 3s2p pattern {321/21}
 Group   2 Type H   : 3s contracted to 2s pattern {21}

Atom   0O    basis set group =>   1
Atom   1H    basis set group =>   2
Atom   2H    basis set group =>   2
------------------------------------------------------------------------------
                           ORCA GTO INTEGRAL CALCULATION
------------------------------------------------------------------------------

                         BASIS SET STATISTICS AND STARTUP INFO

 # of primitive gaussian shells          ...   15
 # of primitive gaussian functions       ...   21
 # of contracted shells                  ...    9
 # of contracted basis functions         ...   13
 Highest angular momentum                ...    1
 Maximum contraction depth               ...    3
 Integral package used                   ... LIBINT
 Integral threshhold            Thresh   ...  2.500e-11
 Primitive cut-off              TCut     ...  2.500e-12


------------------------------ INTEGRAL EVALUATION ----------------------------


 * One electron integrals 
 Pre-screening matrix                    ... done
 Shell pair data                         ... done (   0.000 sec)

-------------------------------------------------------------------------------
                                 ORCA SCF
-------------------------------------------------------------------------------

------------
SCF SETTINGS
------------
[...]
          Item                value                   Tolerance       Converged
          ---------------------------------------------------------------------
          Energy change      -0.0000006904            0.0000050000      YES
          RMS gradient        0.0000413888            0.0001000000      YES
          MAX gradient        0.0000728014            0.0003000000      YES
          RMS step            0.0008528141            0.0020000000      YES
          MAX step            0.0015617960            0.0040000000      YES
          ........................................................
          Max(Bonds)      0.0008      Max(Angles)    0.06
          Max(Dihed)        0.00      Max(Improp)    0.00
          ---------------------------------------------------------------------

                    ***********************HURRAY********************
                    ***        THE OPTIMIZATION HAS CONVERGED     ***
                    *************************************************


    ---------------------------------------------------------------------------
                         Redundant Internal Coordinates

                          --- Optimized Parameters ---  
                            (Angstroem and degrees)

        Definition                    OldVal   dE/dq     Step     FinalVal
    ----------------------------------------------------------------------------
     1. B(H   1,O   0)               10.0000  0.001050  0.0000   10.0000 C 
     2. B(H   2,O   0)                0.9822  0.000309 -0.0000    0.9822   
     3. B(H   2,H   1)                9.4275  0.000351  0.0008    9.4284   
     4. A(H   1,O   0,H   2)           52.03 -0.000339    0.05     52.08   
     5. A(O   0,H   1,H   2)            4.71 -0.000010    0.00      4.71   
     6. A(O   0,H   2,H   1)          123.26  0.000348   -0.06    123.20   
    ----------------------------------------------------------------------------
                 *******************************************************
                 *** FINAL ENERGY EVALUATION AT THE STATIONARY POINT ***
                 ***               (AFTER    3 CYCLES)               ***
                 *******************************************************
---------------------------------
CARTESIAN COORDINATES (ANGSTROEM)
---------------------------------
  O     -3.256318    2.996869   -0.778390
  H      6.411430    1.504737    1.297230
  H     -2.474732    3.344094   -1.261399

----------------------------
CARTESIAN COORDINATES (A.U.)
----------------------------
  NO LB      ZA    FRAG     MASS         X           Y           Z
   0 O     8.0000    0    15.999   -6.153549    5.663261   -1.470944
   1 H     1.0000    0     1.008   12.115846    2.843541    2.451409
   2 H     1.0000    0     1.008   -4.676565    6.319422   -2.383699

--------------------------------
INTERNAL COORDINATES (ANGSTROEM)
--------------------------------
 O      0   0   0     0.000000000000     0.00000000     0.00000000
 H      1   0   0    10.000000018394     0.00000000     0.00000000
 H      1   2   0     0.982212160515    52.08559977     0.00000000

---------------------------
INTERNAL COORDINATES (A.U.)
---------------------------
 O      0   0   0     0.000000000000     0.00000000     0.00000000
 H      1   0   0    18.897261373972     0.00000000     0.00000000
 H      1   2   0     1.856111988780    52.08559977     0.00000000

---------------------
BASIS SET INFORMATION
---------------------
There are 2 groups of distinct atoms

 Group   1 Type O   : 6s3p contracted to 3s2p pattern {321/21}
 Group   2 Type H   : 3s contracted to 2s pattern {21}

Atom   0O    basis set group =>   1
Atom   1H    basis set group =>   2
Atom   2H    basis set group =>   2
------------------------------------------------------------------------------
                           ORCA GTO INTEGRAL CALCULATION
------------------------------------------------------------------------------

                         BASIS SET STATISTICS AND STARTUP INFO

 # of primitive gaussian shells          ...   15
 # of primitive gaussian functions       ...   21
 # of contracted shells                  ...    9
 # of contracted basis functions         ...   13
 Highest angular momentum                ...    1
 Maximum contraction depth               ...    3
 Integral package used                   ... LIBINT
 Integral threshhold            Thresh   ...  2.500e-11
 Primitive cut-off              TCut     ...  2.500e-12


------------------------------ INTEGRAL EVALUATION ----------------------------


 * One electron integrals 
 Pre-screening matrix                    ... done
 Shell pair data                         ... done (   0.000 sec)

-------------------------------------------------------------------------------
                                 ORCA SCF
-------------------------------------------------------------------------------

------------
SCF SETTINGS
------------
Hamiltonian:
 Ab initio Hamiltonian  Method          .... Hartree-Fock(GTOs)


General Settings:
 Integral files         IntName         .... pes
 Hartree-Fock type      HFTyp           .... RHF
 Total Charge           Charge          ....    0
 Multiplicity           Mult            ....    1
 Number of Electrons    NEL             ....   10
 Basis Dimension        Dim             ....   13
 Nuclear Repulsion      ENuc            ....      4.7895527352 Eh

Convergence Acceleration:
 DIIS                   CNVDIIS         .... on
   Start iteration      DIISMaxIt       ....    12
   Startup error        DIISStart       ....  0.200000
   # of expansion vecs  DIISMaxEq       ....     5
   Bias factor          DIISBfac        ....   1.050
   Max. coefficient     DIISMaxC        ....  10.000
 Newton-Raphson         CNVNR           .... off
 SOSCF                  CNVSOSCF        .... on
   Start iteration      SOSCFMaxIt      ....   150
   Startup grad/error   SOSCFStart      ....  0.003300
 Level Shifting         CNVShift        .... on
   Level shift para.    LevelShift      ....    0.2500
   Turn off err/grad.   ShiftErr        ....    0.0010
 Zerner damping         CNVZerner       .... off
 Static damping         CNVDamp         .... on
   Fraction old density DampFac         ....    0.7000
   Max. Damping (<1)    DampMax         ....    0.9800
   Min. Damping (>=0)   DampMin         ....    0.0000
   Turn off err/grad.   DampErr         ....    0.1000
 Fernandez-Rico         CNVRico         .... off

SCF Procedure:
 Maximum # iterations   MaxIter         ....   125
 SCF integral mode      SCFMode         .... Direct
   Integral package                     .... LIBINT
 Reset frequency        DirectResetFreq ....    20
 Integral Threshold     Thresh          ....  2.500e-11 Eh
 Primitive CutOff       TCut            ....  2.500e-12 Eh

Convergence Tolerance:
 Convergence Check Mode ConvCheckMode   .... Total+1el-Energy
 Convergence forced     ConvForced      .... 0
 Energy Change          TolE            ....  1.000e-08 Eh
 1-El. energy change                    ....  1.000e-05 Eh
 Orbital Gradient       TolG            ....  1.000e-05
 Orbital Rotation angle TolX            ....  1.000e-05
 DIIS Error             TolErr          ....  5.000e-07


Diagonalization of the overlap matrix:
Smallest eigenvalue                        ... 1.311e-01
Time for diagonalization                   ...    0.000 sec
Threshold for overlap eigenvalues          ... 1.000e-08
Number of eigenvalues below threshold      ... 0
Time for construction of square roots      ...    0.000 sec
Total time needed                          ...    0.000 sec

---------------------
INITIAL GUESS: MOREAD
---------------------
Guess MOs are being read from file: pes.gbw
Input Geometry matches current geometry (good)
Input basis set matches current basis set (good)
MOs were renormalized
MOs were reorthogonalized (Cholesky)
                      ------------------
                      INITIAL GUESS DONE (   0.0 sec)
                      ------------------
--------------
SCF ITERATIONS
--------------
ITER       Energy         Delta-E        Max-DP      RMS-DP      [F,P]     Damp
               ***  Starting incremental Fock matrix formation  ***
                      *** Initiating the SOSCF procedure ***
                      *** Re-Reading the Fockian *** 
                      *** Removing any level shift *** 
ITER      Energy       Delta-E        Grad      Rot      Max-DP    RMS-DP
  0    -75.14119496 -75.1411949580  0.000155  0.000155  0.000134  0.000027
               *** Restarting incremental Fock matrix formation ***
  1    -75.14119507  -0.0000001077  0.000060  0.000140  0.000148  0.000025
  2    -75.14119509  -0.0000000259  0.000070  0.000811  0.000680  0.000135
  3    -75.14119454   0.0000005530  0.000283  0.000626  0.000545  0.000112
  4    -75.14119513  -0.0000005864  0.000012  0.000029  0.000030  0.000005
                 **** Energy Check signals convergence ****
              ***Rediagonalizing the Fockian in SOSCF/NRSCF***

               *****************************************************
               *                     SUCCESS                       *
               *           SCF CONVERGED AFTER   5 CYCLES          *
               *****************************************************


----------------
TOTAL SCF ENERGY
----------------

Total Energy       :          -75.14119513 Eh           -2044.69587 eV

Components:
Nuclear Repulsion  :            4.78955274 Eh             130.33036 eV
Electronic Energy  :          -79.93074786 Eh           -2175.02623 eV
One Electron Energy:         -113.64373076 Eh           -3092.40313 eV
Two Electron Energy:           33.71298290 Eh             917.37690 eV

Virial components:
Potential Energy   :         -150.21094857 Eh           -4087.44771 eV
Kinetic Energy     :           75.06975344 Eh            2042.75184 eV
Virial Ratio       :            2.00095167


---------------
SCF CONVERGENCE
---------------

  Last Energy change         ...   -1.8396e-09  Tolerance :   1.0000e-08
  Last MAX-Density change    ...    5.8800e-05  Tolerance :   1.0000e-07
  Last RMS-Density change    ...    9.4235e-06  Tolerance :   5.0000e-09
  Last Orbital Gradient      ...    7.9002e-06  Tolerance :   1.0000e-05
  Last Orbital Rotation      ...    5.5681e-05  Tolerance :   1.0000e-05

             **** THE GBW FILE WAS UPDATED (pes.gbw) ****
             **** DENSITY FILE WAS UPDATED (pes.scfp) ****
             **** ENERGY FILE WAS UPDATED (pes.en.tmp) ****
             **** THE GBW FILE WAS UPDATED (pes.gbw) ****
             **** DENSITY FILE WAS UPDATED (pes.scfp) ****
----------------
ORBITAL ENERGIES
----------------

  NO   OCC          E(Eh)            E(eV) 
   0   2.0000     -20.496143      -557.7284 
   1   2.0000      -1.270671       -34.5767 
   2   2.0000      -0.608421       -16.5560 
   3   2.0000      -0.500698       -13.6247 
   4   2.0000      -0.232952        -6.3389 
   5   0.0000      -0.179980        -4.8975 
   6   0.0000       0.279952         7.6179 
   7   0.0000       1.118446        30.4345 
   8   0.0000       1.198909        32.6240 
   9   0.0000       1.758803        47.8595 
  10   0.0000       1.782980        48.5174 
  11   0.0000       1.898247        51.6539 
  12   0.0000       2.858091        77.7726 

                    ********************************
                    * MULLIKEN POPULATION ANALYSIS *
                    ********************************

-----------------------
MULLIKEN ATOMIC CHARGES
-----------------------
   0 O :   -0.413383
   1 H :    0.036241
   2 H :    0.377143
Sum of atomic charges:   -0.0000000

--------------------------------
MULLIKEN REDUCED ORBITAL CHARGES
--------------------------------
  0 O s       :     3.963166  s :     3.963166
      pz      :     1.455730  p :     4.450217
      px      :     1.275761
      py      :     1.718727
  1 H s       :     0.963759  s :     0.963759
  2 H s       :     0.622857  s :     0.622857


                     *******************************
                     * LOEWDIN POPULATION ANALYSIS *
                     *******************************

----------------------
LOEWDIN ATOMIC CHARGES
----------------------
   0 O :   -0.267349
   1 H :    0.036241
   2 H :    0.231108

-------------------------------
LOEWDIN REDUCED ORBITAL CHARGES
-------------------------------
  0 O s       :     3.810550  s :     3.810550
      pz      :     1.457304  p :     4.456799
      px      :     1.279956
      py      :     1.719540
  1 H s       :     0.963759  s :     0.963759
  2 H s       :     0.768892  s :     0.768892


                      *****************************
                      * MAYER POPULATION ANALYSIS *
                      *****************************

  NA   - Mulliken gross atomic population
  ZA   - Total nuclear charge
  QA   - Mulliken gross atomic charge
  VA   - Mayer's total valence
  BVA  - Mayer's bonded valence
  FA   - Mayer's free valence

  ATOM       NA         ZA         QA         VA         BVA        FA
  0 O      8.4134     8.0000    -0.4134     1.8258     1.8258    -0.0000
  1 H      0.9638     1.0000     0.0362     0.9987     0.9987     0.0000
  2 H      0.6229     1.0000     0.3771     0.8271     0.8271    -0.0000

  Mayer bond orders larger than 0.100000
B(  0-O ,  1-H ) :   0.9987 B(  0-O ,  2-H ) :   0.8271 

-------
TIMINGS
-------

Total SCF time: 0 days 0 hours 0 min 0 sec 

Total time                  ....       0.623 sec
Sum of individual times     ....       0.428 sec  ( 68.7%)

Fock matrix formation       ....       0.426 sec  ( 68.4%)
Diagonalization             ....       0.000 sec  (  0.0%)
Density matrix formation    ....       0.000 sec  (  0.0%)
Population analysis         ....       0.001 sec  (  0.1%)
Initial guess               ....       0.001 sec  (  0.1%)
Orbital Transformation      ....       0.000 sec  (  0.0%)
Orbital Orthonormalization  ....       0.000 sec  (  0.0%)
DIIS solution               ....       0.000 sec  (  0.0%)
SOSCF solution              ....       0.000 sec  (  0.1%)

-------------------------   --------------------
FINAL SINGLE POINT ENERGY       -75.141195126873
-------------------------   --------------------

                                *** OPTIMIZATION RUN DONE ***

Storing optimized geometry in pes.050.xyz ... done
Storing optimized geometry and energy in pes.xyzall ... done
Storing actual gbw-file in pes.050.gbw ... done

                            ***************************************
                            *     ORCA property calculations      *
                            ***************************************

                                    ---------------------
                                    Active property flags
                                    ---------------------
   (+) Dipole Moment


------------------------------------------------------------------------------
                       ORCA ELECTRIC PROPERTIES CALCULATION
------------------------------------------------------------------------------

Dipole Moment Calculation                       ... on
Quadrupole Moment Calculation                   ... off
Polarizability Calculation                      ... off
GBWName                                         ... pes.gbw
Electron density file                           ... pes.scfp
The origin for moment calculation is the CENTER OF MASS  = (-5.048673,  5.542203 -1.302547)

-------------
DIPOLE MOMENT
-------------
                                X             Y             Z
Electronic contribution:     -7.40671       1.12953      -1.57123
Nuclear contribution   :      8.69761      -0.95297       1.32563
                        -----------------------------------------
Total Dipole Moment    :      1.29091       0.17656      -0.24560
                        -----------------------------------------
Magnitude (a.u.)       :      1.32587
Magnitude (Debye)      :      3.37010



--------------------
Rotational spectrum 
--------------------
 
Rotational constants in cm-1:    29.502325     0.177775     0.176710 
Rotational constants in MHz : 884457.462372  5329.560871  5297.638379 

 Dipole components along the rotational axes: 
x,y,z [a.u.] :     1.170748    -0.622322     0.000000 
x,y,z [Debye]:     2.975805    -1.581817     0.000000 

 
                   **** RELAXED SURFACE SCAN DONE ***

                    SUMMARY OF THE CALCULATED SURFACE

----------------------------
RELAXED SURFACE SCAN RESULTS
----------------------------

Column   1: NONAME

The Calculated Surface using the 'Actual Energy'
   0.50000000 -74.79956649
   0.69387755 -75.44385935
   0.88775510 -75.57886471
   1.08163265 -75.57615035
   1.27551020 -75.53613507
   1.46938776 -75.48778138
   1.66326531 -75.44054934
   1.85714286 -75.39756893
   2.05102041 -75.35949728
   2.24489796 -75.32620103
   2.43877551 -75.29733964
   2.63265306 -75.27254434
   2.82653061 -75.25149523
   3.02040816 -75.23391092
   3.21428571 -75.21948969
   3.40816327 -75.20786959
   3.60204082 -75.19863236
   3.79591837 -75.19133741
   3.98979592 -75.18556294
   4.18367347 -75.18093800
   4.37755102 -75.17715940
   4.57142857 -75.17396568
   4.76530612 -75.17127364
   4.95918367 -75.16886132
   5.15306122 -75.16669788
   5.34693878 -75.16477584
   5.54081633 -75.16296893
   5.73469388 -75.16128031
   5.92857143 -75.15969698
   6.12244898 -75.15831772
   6.31632653 -75.15695609
   6.51020408 -75.15566685
   6.70408163 -75.15444523
   6.89795918 -75.15328749
   7.09183673 -75.15229426
   7.28571429 -75.15128121
   7.47959184 -75.15031434
   7.67346939 -75.14939097
   7.86734694 -75.14850911
   8.06122449 -75.14766718
   8.25510204 -75.14695830
   8.44897959 -75.14621104
   8.64285714 -75.14549306
   8.83673469 -75.14480275
   9.03061224 -75.14413899
   9.22448980 -75.14350098
   9.41836735 -75.14288847
   9.61224490 -75.14230049
   9.80612245 -75.14173624
  10.00000000 -75.14119513

The Calculated Surface using the SCF energy
   0.50000000 -74.79956649
   0.69387755 -75.44385935
   0.88775510 -75.57886471
   1.08163265 -75.57615035
   1.27551020 -75.53613507
   1.46938776 -75.48778138
   1.66326531 -75.44054934
   1.85714286 -75.39756893
   2.05102041 -75.35949728
   2.24489796 -75.32620103
   2.43877551 -75.29733964
   2.63265306 -75.27254434
   2.82653061 -75.25149523
   3.02040816 -75.23391092
   3.21428571 -75.21948969
   3.40816327 -75.20786959
   3.60204082 -75.19863236
   3.79591837 -75.19133741
   3.98979592 -75.18556294
   4.18367347 -75.18093800
   4.37755102 -75.17715940
   4.57142857 -75.17396568
   4.76530612 -75.17127364
   4.95918367 -75.16886132
   5.15306122 -75.16669788
   5.34693878 -75.16477584
   5.54081633 -75.16296893
   5.73469388 -75.16128031
   5.92857143 -75.15969698
   6.12244898 -75.15831772
   6.31632653 -75.15695609
   6.51020408 -75.15566685
   6.70408163 -75.15444523
   6.89795918 -75.15328749
   7.09183673 -75.15229426
   7.28571429 -75.15128121
   7.47959184 -75.15031434
   7.67346939 -75.14939097
   7.86734694 -75.14850911
   8.06122449 -75.14766718
   8.25510204 -75.14695830
   8.44897959 -75.14621104
   8.64285714 -75.14549306
   8.83673469 -75.14480275
   9.03061224 -75.14413899
   9.22448980 -75.14350098
   9.41836735 -75.14288847
   9.61224490 -75.14230049
   9.80612245 -75.14173624
  10.00000000 -75.14119513


Timings for individual modules:

Sum of individual times         ...      287.445 sec (=   4.791 min)
GTO integral calculation        ...       41.948 sec (=   0.699 min)  14.6 %
SCF iterations                  ...      221.480 sec (=   3.691 min)  77.1 %
SCF Gradient evaluation         ...       17.329 sec (=   0.289 min)   6.0 %
Geometry relaxation             ...        6.688 sec (=   0.111 min)   2.3 %
                             ****ORCA TERMINATED NORMALLY****
TOTAL RUN TIME: 0 days 0 hours 5 minutes 0 seconds 469 msec
