3
Coordinates from ORCA-job pes Relaxed Surface Scan Step 1
  O       0.203857      2.456383     -0.026551
  H       0.703352      2.443267     -0.008307
  H      -0.226830      2.946050     -0.707702
>
3
Coordinates from ORCA-job pes Relaxed Surface Scan Step 2
  O       0.117428      2.448953     -0.016216
  H       0.810740      2.432590      0.006546
  H      -0.247788      2.964157     -0.732890
>
3
Coordinates from ORCA-job pes Relaxed Surface Scan Step 3
  O       0.028116      2.442657     -0.007457
  H       0.915298      2.424046      0.018430
  H      -0.263033      2.978997     -0.753533
>
3
Coordinates from ORCA-job pes Relaxed Surface Scan Step 4
  O      -0.061593      2.439122     -0.002540
  H       1.019272      2.415335      0.030547
  H      -0.277299      2.991242     -0.770567
>
3
Coordinates from ORCA-job pes Relaxed Surface Scan Step 5
  O      -0.150054      2.438855     -0.002169
  H       1.124161      2.405312      0.044491
  H      -0.293727      3.001533     -0.784881
>
3
Coordinates from ORCA-job pes Relaxed Surface Scan Step 6
  O      -0.236380      2.441695     -0.006119
  H       1.230696      2.393609      0.060770
  H      -0.313936      3.010396     -0.797211
>
3
Coordinates from ORCA-job pes Relaxed Surface Scan Step 7
  O      -0.320224      2.446426     -0.012699
  H       1.339318      2.381497      0.077618
  H      -0.338714      3.017778     -0.807479
>
3
Coordinates from ORCA-job pes Relaxed Surface Scan Step 8
  O      -0.402256      2.452906     -0.021714
  H       1.449231      2.368372      0.095875
  H      -0.366595      3.024422     -0.816721
>
3
Coordinates from ORCA-job pes Relaxed Surface Scan Step 9
  O      -0.482157      2.460745     -0.032618
  H       1.560713      2.354122      0.115698
  H      -0.398175      3.030834     -0.825640
>
3
Coordinates from ORCA-job pes Relaxed Surface Scan Step 10
  O      -0.559525      2.469694     -0.045067
  H       1.674111      2.338598      0.137293
  H      -0.434206      3.037409     -0.834786
>
3
Coordinates from ORCA-job pes Relaxed Surface Scan Step 11
  O      -0.634080      2.479480     -0.058679
  H       1.789673      2.321720      0.160770
  H      -0.475213      3.044500     -0.844651
>
3
Coordinates from ORCA-job pes Relaxed Surface Scan Step 12
  O      -0.705689      2.489836     -0.073085
  H       1.907536      2.303490      0.186129
  H      -0.521466      3.052374     -0.855605
>
3
Coordinates from ORCA-job pes Relaxed Surface Scan Step 13
  O      -0.774293      2.500552     -0.087991
  H       2.027767      2.283922      0.213349
  H      -0.573094      3.061227     -0.867918
>
3
Coordinates from ORCA-job pes Relaxed Surface Scan Step 14
  O      -0.839481      2.511484     -0.103198
  H       2.150750      2.262885      0.242612
  H      -0.630889      3.071331     -0.881974
>
3
Coordinates from ORCA-job pes Relaxed Surface Scan Step 15
  O      -0.901220      2.522542     -0.118580
  H       2.276515      2.240404      0.273885
  H      -0.694914      3.082754     -0.897864
>
3
Coordinates from ORCA-job pes Relaxed Surface Scan Step 16
  O      -0.959632      2.533723     -0.134134
  H       2.404942      2.216570      0.307039
  H      -0.764930      3.095407     -0.915465
>
3
Coordinates from ORCA-job pes Relaxed Surface Scan Step 17
  O      -1.015389      2.545075     -0.149925
  H       2.535410      2.191691      0.341647
  H      -0.839641      3.108934     -0.934281
>
3
Coordinates from ORCA-job pes Relaxed Surface Scan Step 18
  O      -1.069007      2.556729     -0.166136
  H       2.667400      2.165924      0.377489
  H      -0.918013      3.123047     -0.953913
>
3
Coordinates from ORCA-job pes Relaxed Surface Scan Step 19
  O      -1.120435      2.568733     -0.182835
  H       2.800971      2.139381      0.414412
  H      -1.000156      3.137586     -0.974137
>
3
Coordinates from ORCA-job pes Relaxed Surface Scan Step 20
  O      -1.171514      2.581046     -0.199962
  H       2.934527      2.112784      0.451409
  H      -1.082634      3.151870     -0.994007
>
3
Coordinates from ORCA-job pes Relaxed Surface Scan Step 21
  O      -1.222456      2.593647     -0.217490
  H       3.067902      2.086194      0.488397
  H      -1.165066      3.165859     -1.013467
>
3
Coordinates from ORCA-job pes Relaxed Surface Scan Step 22
  O      -1.324640      2.602075     -0.229214
  H       3.157478      2.077199      0.500910
  H      -1.152459      3.166426     -1.014255
>
3
Coordinates from ORCA-job pes Relaxed Surface Scan Step 23
  O      -1.328289      2.618718     -0.252366
  H       3.330942      2.035095      0.559478
  H      -1.322274      3.191887     -1.049672
>
3
Coordinates from ORCA-job pes Relaxed Surface Scan Step 24
  O      -1.431186      2.625736     -0.262128
  H       3.420208      2.025486      0.572845
  H      -1.308642      3.194478     -1.053277
>
3
Coordinates from ORCA-job pes Relaxed Surface Scan Step 25
  O      -1.510875      2.636432     -0.277007
  H       3.528694      2.008632      0.596290
  H      -1.337438      3.200636     -1.061843
>
3
Coordinates from ORCA-job pes Relaxed Surface Scan Step 26
  O      -1.496775      2.655441     -0.303449
  H       3.716578      1.962151      0.660947
  H      -1.539423      3.228109     -1.100059
>
3
Coordinates from ORCA-job pes Relaxed Surface Scan Step 27
  O      -1.600168      2.661184     -0.311438
  H       3.805718      1.951783      0.675370
  H      -1.525170      3.232733     -1.106492
>
3
Coordinates from ORCA-job pes Relaxed Surface Scan Step 28
  O      -1.702745      2.670937     -0.325005
  H       3.894176      1.941607      0.689524
  H      -1.511051      3.233156     -1.107079
>
3
Coordinates from ORCA-job pes Relaxed Surface Scan Step 29
  O      -1.804266      2.684753     -0.344224
  H       3.982203      1.931625      0.703410
  H      -1.497557      3.229321     -1.101746
>
3
Coordinates from ORCA-job pes Relaxed Surface Scan Step 30
  O      -1.734366      2.702068     -0.368309
  H       4.219753      1.869829      0.789370
  H      -1.805007      3.273803     -1.163621
>
3
Coordinates from ORCA-job pes Relaxed Surface Scan Step 31
  O      -1.838011      2.707201     -0.375449
  H       4.308788      1.858742      0.804793
  H      -1.790397      3.279757     -1.171903
>
3
Coordinates from ORCA-job pes Relaxed Surface Scan Step 32
  O      -1.941106      2.716380     -0.388218
  H       4.396806      1.847924      0.819842
  H      -1.775320      3.281396     -1.174184
>
3
Coordinates from ORCA-job pes Relaxed Surface Scan Step 33
  O      -2.042745      2.729617     -0.406631
  H       4.484665      1.837169      0.834803
  H      -1.761540      3.278914     -1.170732
>
3
Coordinates from ORCA-job pes Relaxed Surface Scan Step 34
  O      -2.142153      2.746849     -0.430602
  H       4.573110      1.826313      0.849903
  H      -1.750578      3.272537     -1.161861
>
3
Coordinates from ORCA-job pes Relaxed Surface Scan Step 35
  O      -2.032851      2.760112     -0.449052
  H       4.846878      1.755272      0.948724
  H      -2.133647      3.330315     -1.242233
>
3
Coordinates from ORCA-job pes Relaxed Surface Scan Step 36
  O      -2.136614      2.764544     -0.455216
  H       4.935983      1.743469      0.965143
  H      -2.118989      3.337688     -1.252488
>
3
Coordinates from ORCA-job pes Relaxed Surface Scan Step 37
  O      -2.240121      2.773023     -0.467011
  H       5.023733      1.732005      0.981091
  H      -2.103233      3.340672     -1.256640
>
3
Coordinates from ORCA-job pes Relaxed Surface Scan Step 38
  O      -2.342431      2.785651     -0.484577
  H       5.110983      1.720682      0.996840
  H      -2.088171      3.339367     -1.254823
>
3
Coordinates from ORCA-job pes Relaxed Surface Scan Step 39
  O      -2.442673      2.802359     -0.507819
  H       5.198568      1.709314      1.012654
  H      -2.075514      3.334027     -1.247396
>
3
Coordinates from ORCA-job pes Relaxed Surface Scan Step 40
  O      -2.540139      2.822856     -0.536331
  H       5.287243      1.697732      1.028765
  H      -2.066724      3.325111     -1.234994
>
3
Coordinates from ORCA-job pes Relaxed Surface Scan Step 41
  O      -2.389982      2.830178     -0.546517
  H       5.599597      1.617901      1.139814
  H      -2.529235      3.397621     -1.335858
>
3
Coordinates from ORCA-job pes Relaxed Surface Scan Step 42
  O      -2.493697      2.833604     -0.551282
  H       5.689074      1.605385      1.157225
  H      -2.514998      3.406711     -1.348503
>
3
Coordinates from ORCA-job pes Relaxed Surface Scan Step 43
  O      -2.597509      2.841032     -0.561615
  H       5.776828      1.593281      1.174062
  H      -2.498940      3.411387     -1.355007
>
3
Coordinates from ORCA-job pes Relaxed Surface Scan Step 44
  O      -2.700447      2.852646     -0.577769
  H       5.863706      1.581398      1.190592
  H      -2.482879      3.411657     -1.355382
>
3
Coordinates from ORCA-job pes Relaxed Surface Scan Step 45
  O      -2.801583      2.868438     -0.599737
  H       5.950573      1.569543      1.207082
  H      -2.468610      3.407719     -1.349905
>
3
Coordinates from ORCA-job pes Relaxed Surface Scan Step 46
  O      -2.900125      2.888177     -0.627195
  H       6.038247      1.557539      1.223780
  H      -2.457742      3.399984     -1.339145
>
3
Coordinates from ORCA-job pes Relaxed Surface Scan Step 47
  O      -2.994609      2.911054     -0.659019
  H       6.128347      1.544963      1.241274
  H      -2.453357      3.389683     -1.324816
>
3
Coordinates from ORCA-job pes Relaxed Surface Scan Step 48
  O      -3.085777      2.937274     -0.695491
  H       6.220130      1.532084      1.259189
  H      -2.453973      3.376342     -1.306257
>
3
Coordinates from ORCA-job pes Relaxed Surface Scan Step 49
  O      -3.173101      2.966075     -0.735555
  H       6.314344      1.518711      1.277792
  H      -2.460864      3.360914     -1.284796
>
3
Coordinates from ORCA-job pes Relaxed Surface Scan Step 50
  O      -3.256318      2.996869     -0.778390
  H       6.411430      1.504737      1.297230
  H      -2.474732      3.344094     -1.261399
