3
	Energy:       0.0022542
O         -0.04326        2.39233        0.06255
H          1.05358        2.44117       -0.00539
H         -0.32994        3.01220       -0.79972
